data_Xray

_pd_meas_2theta_range_min             10.0
_pd_meas_2theta_range_max            110.0
_pd_meas_2theta_range_inc              0.05
_pd_meas_2theta_scan_method            step


loop_
  _pd_peak_id
  _pd_peak_2theta_centroid\
  _pd_peak_d_spacing
  _pd_peak_pk_height
  _pd_peak_width_2theta
  _pd_peak_wavelaength_id
  _refln_index_h  
  _refln_index_k  
  _refln_index_l    
 
 PK1          18.673    4.74790     5193  0.0440  1    0    1    1 
 PK2          18.720    4.74790     2561  0.0439  2    0    1    1 
 PK3          18.721    4.73587     1954  0.0439  1   -1    0    1 
 PK4          18.761    4.72606     2934  0.0269  1    1    0    1 
 PK5          18.768    4.73587      967  0.0438  2   -1    0    1 
 PK6          18.808    4.72606     1466  0.0267  2    1    0    1 
 PK7          21.627    4.10578    19894  0.0274  1    1    1    0 
 PK8          21.648    4.10178     8228  0.0274  1    0    0    2 
 PK9          21.681    4.10578    10235  0.0272  2    1    1    0 
 PK10         21.702    4.10178     3982  0.0272  2    0    0    2 
 PK11         24.205    3.67390     1117  0.0351  1   -1    1    1 
 PK12         24.236    3.66931     1395  0.0174  1    1    1    1 
 PK13         24.266    3.67390      553  0.0353  2   -1    1    1 
 PK14         24.297    3.66931      570  0.0179  2    1    1    1 
 PK15         26.561    3.35317      274  0.0372  1    0    1    2 
 PK16         26.628    3.35317      156  0.0374  2    0    1    2 
 PK17         30.687    2.91105    56810  0.0619  1    0    2    0 
 PK18         30.763    2.90408   100000  0.0620  1   -1    1    2 
 PK19         30.765    2.91105    27794  0.0621  2    0    2    0 
 PK20         30.812    2.89955    96787  0.0411  1    1    1    2 
 PK21         30.841    2.90408    50294  0.0622  2   -1    1    2 
 PK22         30.856    2.89547    46089  0.0413  1    2    0    0 
 PK23         30.890    2.89955    51982  0.0413  2    1    1    2 
 PK24         30.935    2.89547    24765  0.0415  2    2    0    0 
 PK25         32.613    2.74344     1470  0.0606  1    0    2    1 
 PK26         32.696    2.74344      719  0.0608  2    0    2    1 
 PK27         34.454    2.60092      552  0.0602  1    1    2    0 
 PK28         34.542    2.60092      276  0.0603  2    1    2    0 
 PK29         34.569    2.59256      713  0.0522  1    2    1    0 
 PK30         34.657    2.59256      351  0.0524  2    2    1    0 
 PK31         36.190    2.48000     3600  0.0680  1   -1    2    1 
 PK32         36.212    2.47858      931  0.0602  1    1    2    1 
 PK33         36.264    2.47511     1956  0.0603  1    0    1    3 
 PK34         36.269    2.47480       25  0.0682  1   -1    0    3 
 PK35         36.284    2.48000     1784  0.0682  2   -1    2    1 
 PK36         36.290    2.47345     4606  0.0604  1   -2    1    1 
 PK37         36.305    2.47858      464  0.0604  2    1    2    1 
 PK38         36.332    2.47065      277  0.0533  1    2    1    1 
 PK39         36.333    2.47060     2507  0.0534  1    1    0    3 
 PK40         36.358    2.47511      976  0.0605  2    0    1    3 
 PK41         36.362    2.47480       13  0.0684  2   -1    0    3 
 PK42         36.383    2.47345     2287  0.0606  2   -2    1    1 
 PK43         36.426    2.47065      137  0.0535  2    2    1    1 
 PK44         36.426    2.47060     1243  0.0536  2    1    0    3 
 PK45         37.867    2.37395        0  0.0675  1    0    2    2 
 PK46         37.965    2.37395        0  0.0677  2    0    2    2 
 PK47         37.967    2.36794        0  0.0677  1   -2    0    2 
 PK48         38.049    2.36303        0  0.0547  1    2    0    2 
 PK49         38.065    2.36794        0  0.0679  2   -2    0    2 
 PK50         38.147    2.36303        0  0.0549  2    2    0    2 
 PK51         39.535    2.27758      405  0.0742  1   -1    1    3 
 PK52         39.594    2.27430      400  0.0615  1    1    1    3 
 PK53         39.637    2.27758      215  0.0743  2   -1    1    3 
 PK54         39.697    2.27430      201  0.0617  2    1    1    3 
 PK55         41.038    2.19753      194  0.0799  1   -1    2    2 
 PK56         41.077    2.19556      273  0.0678  1    1    2    2 
 PK57         41.118    2.19346      124  0.0738  1   -2    1    2 
 PK58         41.145    2.19753       99  0.0801  2   -1    2    2 
 PK59         41.183    2.19556      140  0.0680  2    1    2    2 
 PK60         41.195    2.18956      170  0.0625  1    2    1    2 
 PK61         41.225    2.19346       64  0.0740  2   -2    1    2 
 PK62         41.302    2.18956       84  0.0627  2    2    1    2 
 PK63         44.076    2.05289    62126  0.0739  1    2    2    0 
 PK64         44.121    2.05089    30153  0.0740  1    0    0    4 
 PK65         44.191    2.05289    30778  0.0741  2    2    2    0 
 PK66         44.236    2.05089    14990  0.0742  2    0    0    4 
 PK67         45.471    1.99308     1015  0.0790  1    0    2    3 
 PK68         45.492    1.99222      759  0.0791  1   -2    2    1 
 PK69         45.527    1.99075      772  0.0745  1    2    2    1 
 PK70         45.590    1.99308      514  0.0792  2    0    2    3 
 PK71         45.611    1.99222      387  0.0793  2   -2    2    1 
 PK72         45.647    1.99075      387  0.0747  2    2    2    1 
 PK73         46.932    1.93438        0  0.0794  1    0    1    4 
 PK74         47.056    1.93438        0  0.0796  2    0    1    4 
 PK75         48.141    1.88857     1016  0.0880  1    0    3    1 
 PK76         48.224    1.88552     1723  0.0881  1   -1    2    3 
 PK77         48.269    1.88857      509  0.0882  2    0    3    1 
 PK78         48.275    1.88366      353  0.0799  1    1    2    3 
 PK79         48.286    1.88325      347  0.0882  1   -2    1    3 
 PK80         48.352    1.88552      902  0.0883  2   -1    2    3 
 PK81         48.377    1.87992      867  0.0801  1   -3    0    1 
 PK82         48.387    1.87955     2061  0.0762  1    2    1    3 
 PK83         48.403    1.88366      183  0.0801  2    1    2    3 
 PK84         48.414    1.88325      177  0.0884  2   -2    1    3 
 PK85         48.428    1.87807      272  0.0763  1    3    0    1 
 PK86         48.505    1.87992      444  0.0803  2   -3    0    1 
 PK87         48.515    1.87955     1073  0.0764  2    2    1    3 
 PK88         48.556    1.87807      139  0.0765  2    3    0    1 
 PK89         49.493    1.84012     3781  0.0880  1    1    3    0 
 PK90         49.584    1.83695     2131  0.0881  1   -2    2    2 
 PK91         49.615    1.83588     2421  0.0882  1   -1    1    4 
 PK92         49.624    1.84012     1896  0.0882  2    1    3    0 
 PK93         49.650    1.83466     2908  0.0806  1    2    2    2 
 PK94         49.681    1.83358     1834  0.0807  1    1    1    4 
 PK95         49.716    1.83695     1065  0.0883  2   -2    2    2 
 PK96         49.720    1.83223     1779  0.0807  1    3    1    0 
 PK97         49.747    1.83588     1219  0.0884  2   -1    1    4 
 PK98         49.782    1.83466     1442  0.0808  2    2    2    2 
 PK99         49.813    1.83358      910  0.0809  2    1    1    4 
 PK100        49.852    1.83223      891  0.0810  2    3    1    0 
 PK101        50.801    1.79577     1368  0.0919  1   -1    3    1 
 PK102        50.817    1.79523     1919  0.0882  1    1    3    1 
 PK103        50.936    1.79577      678  0.0921  2   -1    3    1 
 PK104        50.952    1.79523      970  0.0884  2    1    3    1 
 PK105        51.008    1.78897      357  0.0850  1   -3    1    1 
 PK106        51.056    1.78738      133  0.0816  1    3    1    1 
 PK107        51.144    1.78897      179  0.0852  2   -3    1    1 
 PK108        51.192    1.78738       67  0.0819  2    3    1    1 
 PK109        52.092    1.75425        4  0.0920  1    0    3    2 
 PK110        52.231    1.75425        2  0.0922  2    0    3    2 
 PK111        54.604    1.67935    21088  0.0988  1   -1    3    2 
 PK112        54.635    1.67847    22616  0.0929  1    1    3    2 
 PK113        54.701    1.67659    23295  0.0930  1    0    2    4 
 PK114        54.745    1.67534    11898  0.0990  1   -2    0    4 
 PK115        54.751    1.67935    10481  0.0990  2   -1    3    2 
 PK116        54.782    1.67847    11230  0.0931  2    1    3    2 
 PK117        54.785    1.67422    22830  0.0931  1   -3    1    2 
 PK118        54.849    1.67659    11586  0.0932  2    0    2    4 
 PK119        54.869    1.67186    10257  0.0876  1    2    0    4 
 PK120        54.877    1.67162    24137  0.0876  1    3    1    2 
 PK121        54.893    1.67534     5911  0.0992  2   -2    0    4 
 PK122        54.933    1.67422    11341  0.0933  2   -3    1    2 
 PK123        55.017    1.67186     5094  0.0879  2    2    0    4 
 PK124        55.025    1.67162    11983  0.0879  2    3    1    2 
 PK125        55.917    1.64297      195  0.0991  1   -2    2    3 
 PK126        56.009    1.64051      214  0.0911  1    2    2    3 
 PK127        56.069    1.64297       95  0.0993  2   -2    2    3 
 PK128        56.160    1.64051      104  0.0914  2    2    2    3 
 PK129        57.086    1.61208       55  0.0968  1    2    3    0 
 PK130        57.119    1.61122       26  0.0995  1   -1    2    4 
 PK131        57.166    1.61000       19  0.1022  1   -2    1    4 
 PK132        57.179    1.60968        9  0.0945  1    1    2    4 
 PK133        57.215    1.60876      133  0.0945  1    3    2    0 
 PK134        57.241    1.61208       25  0.0971  2    2    3    0 
 PK135        57.274    1.61122       12  0.0997  2   -1    2    4 
 PK136        57.286    1.60692       33  0.0922  1    2    1    4 
 PK137        57.322    1.61000        9  0.1024  2   -2    1    4 
 PK138        57.334    1.60968        4  0.0947  2    1    2    4 
 PK139        57.370    1.60876       60  0.0948  2    3    2    0 
 PK140        57.442    1.60692       16  0.0925  2    2    1    4 
 PK141        58.249    1.58263      854  0.0999  1    0    3    3 
 PK142        58.266    1.58220      748  0.0999  1   -2    3    1 
 PK143        58.296    1.58147       48  0.0976  1    2    3    1 
 PK144        58.376    1.57949       11  0.1001  1   -1    0    5 
 PK145        58.386    1.57924      313  0.0977  1   -3    2    1 
 PK146        58.388    1.57920      220  0.0977  1    0    1    5 
 PK147        58.408    1.58263      416  0.1001  2    0    3    3 
 PK148        58.411    1.57862      446  0.1001  1   -3    0    3 
 PK149        58.425    1.58220      366  0.1002  2   -2    3    1 
 PK150        58.431    1.57814      288  0.0955  1    3    2    1 
 PK151        58.450    1.57767      592  0.0955  1    1    0    5 
 PK152        58.455    1.58147       23  0.0978  2    2    3    1 
 PK153        58.535    1.57949        6  0.1003  2   -1    0    5 
 PK154        58.544    1.57535      151  0.0934  1    3    0    3 
 PK155        58.545    1.57924      154  0.0980  2   -3    2    1 
 PK156        58.547    1.57920      108  0.0980  2    0    1    5 
 PK157        58.570    1.57862      220  0.1004  2   -3    0    3 
 PK158        58.590    1.57814      142  0.0958  2    3    2    1 
 PK159        58.609    1.57767      291  0.0958  2    1    0    5 
 PK160        58.704    1.57535       74  0.0937  2    3    0    3 
 PK161        60.582    1.52714      884  0.1055  1   -1    3    3 
 PK162        60.626    1.52615      652  0.1014  1    1    3    3 
 PK163        60.703    1.52439       41  0.1036  1   -1    1    5 
 PK164        60.737    1.52361        2  0.1036  1   -3    1    3 
 PK165        60.749    1.52714      438  0.1057  2   -1    3    3 
 PK166        60.775    1.52275       45  0.0996  1    1    1    5 
 PK167        60.792    1.52615      323  0.1017  2    1    3    3 
 PK168        60.867    1.52067       27  0.0978  1    3    1    3 
 PK169        60.870    1.52439       21  0.1038  2   -1    1    5 
 PK170        60.904    1.52361        1  0.1039  2   -3    1    3 
 PK171        60.943    1.52275       22  0.0999  2    1    1    5 
 PK172        61.035    1.52067       13  0.0981  2    3    1    3 
 PK173        61.752    1.50099       34  0.1061  1   -2    3    2 
 PK174        61.809    1.49974       17  0.1024  1    2    3    2 
 PK175        61.860    1.49862        4  0.1043  1   -3    2    2 
 PK176        61.922    1.50099       17  0.1063  2   -2    3    2 
 PK177        61.946    1.49675        3  0.1008  1    3    2    2 
 PK178        61.980    1.49974        9  0.1026  2    2    3    2 
 PK179        62.031    1.49862        2  0.1046  2   -3    2    2 
 PK180        62.117    1.49675        1  0.1010  2    3    2    2 
 PK181        63.904    1.45552     8717  0.1108  1    0    4    0 
 PK182        64.076    1.45204    16492  0.1110  1   -2    2    4 
 PK183        64.082    1.45552     4335  0.1110  2    0    4    0 
 PK184        64.188    1.44977    16626  0.1047  1    2    2    4 
 PK185        64.254    1.45204     8186  0.1112  2   -2    2    4 
 PK186        64.289    1.44773     7726  0.1049  1    4    0    0 
 PK187        64.367    1.44977     8247  0.1050  2    2    2    4 
 PK188        64.468    1.44773     3837  0.1052  2    4    0    0 
 PK189        65.024    1.43314      958  0.1115  1    0    4    1 
 PK190        65.206    1.43314      476  0.1117  2    0    4    1 
 PK191        65.219    1.42932       81  0.1087  1    0    2    5 
 PK192        65.402    1.42932       40  0.1090  2    0    2    5 
 PK193        66.141    1.41162      136  0.1123  1    1    4    0 
 PK194        66.247    1.40963        3  0.1110  1    0    3    4 
 PK195        66.327    1.41162       71  0.1125  2    1    4    0 
 PK196        66.433    1.40963        2  0.1113  2    0    3    4 
 PK197        66.496    1.40495       87  0.1088  1    4    1    0 
 PK198        66.683    1.40495       44  0.1091  2    4    1    0 
 PK199        67.235    1.39130      197  0.1144  1   -1    4    1 
 PK200        67.248    1.39105      211  0.1132  1    1    4    1 
 PK201        67.335    1.38947       33  0.1145  1   -2    3    3 
 PK202        67.399    1.38830      660  0.1134  1   -1    2    5 
 PK203        67.417    1.38798      570  0.1110  1    2    3    3 
 PK204        67.424    1.39130       97  0.1147  2   -1    4    1 
 PK205        67.432    1.38771       32  0.1134  1   -3    2    3 
 PK206        67.435    1.38764      427  0.1147  1   -2    1    5 
 PK207        67.438    1.39105      104  0.1134  2    1    4    1 
 PK208        67.467    1.38706       19  0.1110  1    1    2    5 
 PK209        67.525    1.38947       16  0.1148  2   -2    3    3 
 PK210        67.554    1.38549      355  0.1100  1    3    2    3 
 PK211        67.566    1.38528      607  0.1112  1   -4    1    1 
 PK212        67.572    1.38517       18  0.1100  1    2    1    5 
 PK213        67.589    1.38830      326  0.1137  2   -1    2    5 
 PK214        67.607    1.38798      282  0.1113  2    2    3    3 
 PK215        67.620    1.38430        4  0.1101  1    4    1    1 
 PK216        67.622    1.38771       16  0.1137  2   -3    2    3 
 PK217        67.625    1.38764      211  0.1149  2   -2    1    5 
 PK218        67.658    1.38706       10  0.1114  2    1    2    5 
 PK219        67.745    1.38549      176  0.1103  2    3    2    3 
 PK220        67.756    1.38528      301  0.1115  2   -4    1    1 
 PK221        67.762    1.38517        9  0.1104  2    2    1    5 
 PK222        67.811    1.38430        2  0.1104  2    4    1    1 
 PK223        68.325    1.37172     1084  0.1153  1    0    4    2 
 PK224        68.417    1.37011     1022  0.1154  1   -1    3    4 
 PK225        68.471    1.36916     1181  0.1133  1    1    3    4 
 PK226        68.503    1.36859      614  0.1133  1    3    3    0 
 PK227        68.519    1.37172      537  0.1156  2    0    4    2 
 PK228        68.549    1.36779      608  0.1156  1   -3    1    4 
 PK229        68.579    1.36726      164  0.1134  1    0    0    6 
 PK230        68.610    1.37011      506  0.1157  2   -1    3    4 
 PK231        68.643    1.36614      343  0.1135  1   -4    0    2 
 PK232        68.665    1.36916      585  0.1136  2    1    3    4 
 PK233        68.697    1.36859      304  0.1136  2    3    3    0 
 PK234        68.711    1.36496      539  0.1115  1    3    1    4 
 PK235        68.743    1.36779      301  0.1159  2   -3    1    4 
 PK236        68.752    1.36425      468  0.1116  1    4    0    2 
 PK237        68.773    1.36726       81  0.1137  2    0    0    6 
 PK238        68.838    1.36614      170  0.1138  2   -4    0    2 
 PK239        68.906    1.36496      264  0.1119  2    3    1    4 
 PK240        68.946    1.36425      230  0.1119  2    4    0    2 
 PK241        69.565    1.35028      383  0.1155  1   -3    3    1 
 PK242        69.605    1.34960      376  0.1146  1    3    3    1 
 PK243        69.763    1.35028      191  0.1158  2   -3    3    1 
 PK244        69.803    1.34960      186  0.1149  2    3    3    1 
 PK245        70.478    1.33501       43  0.1192  1   -1    4    2 
 PK246        70.505    1.33456       29  0.1174  1    1    4    2 
 PK247        70.679    1.33501       22  0.1194  2   -1    4    2 
 PK248        70.706    1.33456       15  0.1177  2    1    4    2 
 PK249        70.719    1.33105        0  0.1169  1    0    1    6 
 PK250        70.782    1.33001       32  0.1170  1   -4    1    2 
 PK251        70.889    1.32827       65  0.1154  1    4    1    2 
 PK252        70.921    1.33105        0  0.1172  2    0    1    6 
 PK253        70.984    1.33001       17  0.1173  2   -4    1    2 
 PK254        71.091    1.32827       36  0.1158  2    4    1    2 
 PK255        72.643    1.30046     8494  0.1206  1    2    4    0 
 PK256        72.748    1.29884     8342  0.1207  1   -3    3    2 
 PK257        72.814    1.29783     8585  0.1208  1   -1    1    6 
 PK258        72.827    1.29763     8141  0.1196  1    3    3    2 
 PK259        72.852    1.30046     4218  0.1209  2    2    4    0 
 PK260        72.893    1.29662     8578  0.1197  1    1    1    6 
 PK261        72.915    1.29628     8033  0.1197  1    4    2    0 
 PK262        72.957    1.29884     4141  0.1211  2   -3    3    2 
 PK263        73.024    1.29783     4267  0.1212  2   -1    1    6 
 PK264        73.037    1.29763     4045  0.1199  2    3    3    2 
 PK265        73.103    1.29662     4263  0.1200  2    1    1    6 
 PK266        73.125    1.29628     3995  0.1201  2    4    2    0 
 PK267        73.670    1.28485      330  0.1224  1    0    4    3 
 PK268        73.685    1.28462      474  0.1224  1   -2    4    1 
 PK269        73.712    1.28422      522  0.1219  1    2    4    1 
 PK270        73.817    1.28264      250  0.1232  1   -2    2    5 
 PK271        73.883    1.28485      164  0.1227  2    0    4    3 
 PK272        73.899    1.28462      235  0.1227  2   -2    4    1 
 PK273        73.925    1.28422      259  0.1222  2    2    4    1 
 PK274        73.943    1.28078      150  0.1217  1   -4    2    1 
 PK275        73.949    1.28069      265  0.1212  1    2    2    5 
 PK276        73.995    1.28000      147  0.1213  1    4    2    1 
 PK277        74.031    1.28264      124  0.1235  2   -2    2    5 
 PK278        74.157    1.28078       74  0.1221  2   -4    2    1 
 PK279        74.163    1.28069      132  0.1215  2    2    2    5 
 PK280        74.210    1.28000       73  0.1216  2    4    2    1 
 PK281        74.803    1.26817        8  0.1247  1   -2    3    4 
 PK282        74.889    1.26692       15  0.1244  1   -3    2    4 
 PK283        74.908    1.26666        3  0.1231  1    2    3    4 
 PK284        75.021    1.26817        4  0.1250  2   -2    3    4 
 PK285        75.046    1.26467       23  0.1229  1    3    2    4 
 PK286        75.107    1.26692        8  0.1247  2   -3    2    4 
 PK287        75.126    1.26666        2  0.1234  2    2    3    4 
 PK288        75.265    1.26467       11  0.1232  2    3    2    4 
 PK289        75.752    1.25462       58  0.1258  1   -1    4    3 
 PK290        75.791    1.25407      263  0.1251  1    1    4    3 
 PK291        75.871    1.25295      105  0.1252  1    0    3    5 
 PK292        75.974    1.25462       29  0.1261  2   -1    4    3 
 PK293        75.974    1.25150      208  0.1261  1   -3    0    5 
 PK294        76.013    1.25407      132  0.1254  2    1    4    3 
 PK295        76.028    1.25075        3  0.1255  1   -4    1    3 
 PK296        76.093    1.25295       52  0.1256  2    0    3    5 
 PK297        76.169    1.24878       21  0.1247  1    3    0    5 
 PK298        76.184    1.24858      457  0.1247  1    4    1    3 
 PK299        76.197    1.25150      103  0.1264  2   -3    0    5 
 PK300        76.251    1.25075        2  0.1258  2   -4    1    3 
 PK301        76.393    1.24878       10  0.1251  2    3    0    5 
 PK302        76.408    1.24858      228  0.1251  2    4    1    3 
 PK303        76.807    1.24000      408  0.1271  1   -2    4    2 
 PK304        76.859    1.23929      379  0.1266  1    2    4    2 
 PK305        76.986    1.23755      199  0.1268  1    0    2    6 
 PK306        76.998    1.23740       88  0.1273  1   -2    0    6 
 PK307        77.033    1.24000      204  0.1274  2   -2    4    2 
 PK308        77.048    1.23672      300  0.1269  1   -4    2    2 
 PK309        77.085    1.23929      189  0.1270  2    2    4    2 
 PK310        77.151    1.23532      276  0.1266  1    4    2    2 
 PK311        77.153    1.23530       92  0.1266  1    2    0    6 
 PK312        77.213    1.23755      100  0.1272  2    0    2    6 
 PK313        77.224    1.23740       44  0.1276  2   -2    0    6 
 PK314        77.275    1.23672      150  0.1273  2   -4    2    2 
 PK315        77.378    1.23532      137  0.1270  2    4    2    2 
 PK316        77.380    1.23530       46  0.1270  2    2    0    6 
 PK317        77.921    1.22504      386  0.1285  1   -1    3    5 
 PK318        77.951    1.22463      431  0.1286  1   -3    3    3 
 PK319        77.985    1.22419      406  0.1283  1    1    3    5 
 PK320        78.033    1.22355      136  0.1289  1   -3    1    5 
 PK321        78.067    1.22310      395  0.1283  1    3    3    3 
 PK322        78.151    1.22504      193  0.1289  2   -1    3    5 
 PK323        78.182    1.22463      215  0.1289  2   -3    3    3 
 PK324        78.216    1.22419      203  0.1287  2    1    3    5 
 PK325        78.226    1.22101       97  0.1284  1    3    1    5 
 PK326        78.264    1.22355       68  0.1292  2   -3    1    5 
 PK327        78.298    1.22310      197  0.1287  2    3    3    3 
 PK328        78.458    1.22101       48  0.1288  2    3    1    5 
 PK329        79.021    1.21072        1  0.1301  1   -1    2    6 
 PK330        79.048    1.21037        0  0.1302  1   -2    1    6 
 PK331        79.098    1.20974        7  0.1301  1    1    2    6 
 PK332        79.202    1.20840        2  0.1302  1    2    1    6 
 PK333        79.256    1.21072        0  0.1305  2   -1    2    6 
 PK334        79.283    1.21037        0  0.1305  2   -2    1    6 
 PK335        79.333    1.20974        3  0.1305  2    1    2    6 
 PK336        79.438    1.20840        1  0.1306  2    2    1    6 
 PK337        80.924    1.18698     7563  0.1330  1    0    4    4 
 PK338        81.167    1.18698     3773  0.1333  2    0    4    4 
 PK339        81.173    1.18397     3624  0.1333  1   -4    0    4 
 PK340        81.377    1.18151     3640  0.1342  1    4    0    4 
 PK341        81.417    1.18397     1806  0.1337  2   -4    0    4 
 PK342        81.622    1.18151     1813  0.1347  2    4    0    4 
 PK343        81.935    1.17487      587  0.1342  1   -2    4    3 
 PK344        82.012    1.17396      584  0.1349  1    2    4    3 
 PK345        82.159    1.17223      153  0.1349  1   -4    2    3 
 PK346        82.183    1.17487      291  0.1345  2   -2    4    3 
 PK347        82.260    1.17396      290  0.1353  2    2    4    3 
 PK348        82.312    1.17044      165  0.1358  1    4    2    3 
 PK349        82.408    1.17223       76  0.1353  2   -4    2    3 
 PK350        82.561    1.17044       83  0.1363  2    4    2    3 
 PK351        82.946    1.16309       17  0.1357  1   -1    4    4 
 PK352        82.997    1.16251       44  0.1364  1    1    4    4 
 PK353        83.027    1.16216        2  0.1364  1    3    4    0 
 PK354        83.180    1.16042       15  0.1370  1    4    3    0 
 PK355        83.197    1.16022        4  0.1364  1   -4    1    4 
 PK356        83.198    1.16309        8  0.1361  2   -1    4    4 
 PK357        83.249    1.16251       21  0.1368  2    1    4    4 
 PK358        83.280    1.16216        1  0.1368  2    3    4    0 
 PK359        83.400    1.15791       34  0.1380  1    4    1    4 
 PK360        83.433    1.16042        8  0.1374  2    4    3    0 
 PK361        83.450    1.16022        2  0.1368  2   -4    1    4 
 PK362        83.654    1.15791       17  0.1385  2    4    1    4 
 PK363        83.848    1.15286       90  0.1369  1    0    5    1 
 PK364        84.025    1.15089      241  0.1379  1   -3    4    1 
 PK365        84.050    1.15061      124  0.1371  1   -2    3    5 
 PK366        84.063    1.15046      138  0.1383  1    3    4    1 
 PK367        84.104    1.15286       45  0.1372  2    0    5    1 
 PK368        84.127    1.14975       41  0.1373  1   -3    2    5 
 PK369        84.171    1.14926      469  0.1385  1   -4    3    1 
 PK370        84.177    1.14920       25  0.1389  1    2    3    5 
 PK371        84.182    1.14914        4  0.1381  1   -1    0    7 
 PK372        84.204    1.14889      202  0.1385  1    0    1    7 
 PK373        84.222    1.14870       22  0.1389  1    4    3    1 
 PK374        84.271    1.14816      183  0.1390  1    1    0    7 
 PK375        84.282    1.15089      119  0.1383  2   -3    4    1 
 PK376        84.307    1.15061       61  0.1375  2   -2    3    5 
 PK377        84.317    1.14764      219  0.1395  1    3    2    5 
 PK378        84.320    1.15046       68  0.1387  2    3    4    1 
 PK379        84.361    1.14716       21  0.1392  1   -5    0    1 
 PK380        84.384    1.14975       20  0.1376  2   -3    2    5 
 PK381        84.424    1.14647       74  0.1397  1    5    0    1 
 PK382        84.428    1.14926      231  0.1389  2   -4    3    1 
 PK383        84.434    1.14920       12  0.1393  2    2    3    5 
 PK384        84.439    1.14914        2  0.1385  2   -1    0    7 
 PK385        84.462    1.14889      100  0.1390  2    0    1    7 
 PK386        84.479    1.14870       11  0.1394  2    4    3    1 
 PK387        84.528    1.14816       91  0.1395  2    1    0    7 
 PK388        84.575    1.14764      108  0.1400  2    3    2    5 
 PK389        84.619    1.14716       11  0.1396  2   -5    0    1 
 PK390        84.682    1.14647       37  0.1402  2    5    0    1 
 PK391        84.870    1.14157      939  0.1385  1    1    5    0 
 PK392        85.087    1.13922      517  0.1388  1   -3    3    4 
 PK393        85.126    1.13879      207  0.1389  1   -2    2    6 
 PK394        85.131    1.14157      470  0.1389  2    1    5    0 
 PK395        85.239    1.13758      302  0.1410  1    3    3    4 
 PK396        85.278    1.13715      409  0.1410  1    2    2    6 
 PK397        85.348    1.13922      260  0.1392  2   -3    3    4 
 PK398        85.388    1.13879      104  0.1393  2   -2    2    6 
 PK399        85.392    1.13593      183  0.1412  1    5    1    0 
 PK400        85.501    1.13758      152  0.1414  2    3    3    4 
 PK401        85.541    1.13715      207  0.1415  2    2    2    6 
 PK402        85.655    1.13593       92  0.1417  2    5    1    0 
 PK403        85.878    1.13074      896  0.1397  1   -1    5    1 
 PK404        85.890    1.13061      556  0.1403  1    1    5    1 
 PK405        86.143    1.13074      456  0.1401  2   -1    5    1 
 PK406        86.156    1.13061      284  0.1407  2    1    5    1 
 PK407        86.195    1.12739       59  0.1413  1   -1    1    7 
 PK408        86.283    1.12646       51  0.1426  1    1    1    7 
 PK409        86.373    1.12552        0  0.1427  1   -5    1    1 
 PK410        86.436    1.12486       46  0.1434  1    5    1    1 
 PK411        86.462    1.12739       30  0.1417  2   -1    1    7 
 PK412        86.550    1.12646       26  0.1430  2    1    1    7 
 PK413        86.641    1.12552        0  0.1432  2   -5    1    1 
 PK414        86.704    1.12486       24  0.1439  2    5    1    1 
 PK415        86.889    1.12016        3  0.1415  1    0    5    2 
 PK416        87.047    1.11854       63  0.1423  1   -3    4    2 
 PK417        87.122    1.11776       79  0.1437  1    3    4    2 
 PK418        87.126    1.11772        2  0.1431  1    0    3    6 
 PK419        87.159    1.12016        1  0.1419  2    0    5    2 
 PK420        87.186    1.11711       21  0.1432  1   -4    3    2 
 PK421        87.287    1.11608       33  0.1446  1    4    3    2 
 PK422        87.317    1.11854       27  0.1427  2   -3    4    2 
 PK423        87.393    1.11776       35  0.1442  2    3    4    2 
 PK424        87.397    1.11772        1  0.1435  2    0    3    6 
 PK425        87.457    1.11711       10  0.1436  2   -4    3    2 
 PK426        87.558    1.11608       16  0.1451  2    4    3    2 
 PK427        88.906    1.09990     4219  0.1437  1   -1    5    2 
 PK428        88.931    1.09965     4118  0.1453  1    1    5    2 
 PK429        89.021    1.09877     5312  0.1438  1   -2    4    4 
 PK430        89.117    1.09784     4544  0.1456  1   -1    3    6 
 PK431        89.122    1.09778     4670  0.1472  1    2    4    4 
 PK432        89.185    1.09990     2101  0.1441  2   -1    5    2 
 PK433        89.192    1.09710     5135  0.1473  1    1    3    6 
 PK434        89.211    1.09965     2050  0.1457  2    1    5    2 
 PK435        89.214    1.09689     5064  0.1441  1   -3    1    6 
 PK436        89.231    1.09673     5335  0.1457  1   -4    2    4 
 PK437        89.302    1.09877     2645  0.1442  2   -2    4    4 
 PK438        89.375    1.09533     5574  0.1476  1   -5    1    2 
 PK439        89.397    1.09784     2262  0.1460  2   -1    3    6 
 PK440        89.403    1.09778     2325  0.1477  2    2    4    4 
 PK441        89.432    1.09478     4521  0.1494  1    4    2    4 
 PK442        89.441    1.09469     5680  0.1494  1    3    1    6 
 PK443        89.473    1.09710     2559  0.1478  2    1    3    6 
 PK444        89.495    1.09689     2524  0.1445  2   -3    1    6 
 PK445        89.501    1.09412     5547  0.1495  1    5    1    2 
 PK446        89.512    1.09673     2658  0.1462  2   -4    2    4 
 PK447        89.657    1.09533     2777  0.1481  2   -5    1    2 
 PK448        89.715    1.09478     2254  0.1499  2    4    2    4 
 PK449        89.723    1.09469     2831  0.1500  2    3    1    6 
 PK450        89.783    1.09412     2765  0.1501  2    5    1    2 
 PK451        90.055    1.08882      524  0.1475  1    0    4    5 
 PK452        90.232    1.08715      154  0.1487  1    0    2    7 
 PK453        90.340    1.08882      261  0.1480  2    0    4    5 
 PK454        90.518    1.08715       77  0.1492  2    0    2    7 
 PK455        90.960    1.08033        2  0.1485  1    2    5    0 
 PK456        91.250    1.08033        1  0.1490  2    2    5    0 
 PK457        91.414    1.07614        0  0.1522  1    5    2    0 
 PK458        91.706    1.07614        0  0.1528  2    5    2    0 
 PK459        91.943    1.07133      106  0.1495  1    0    5    3 
 PK460        91.958    1.07120      255  0.1496  1   -2    5    1 
 PK461        91.983    1.07097       49  0.1506  1    2    5    1 
 PK462        92.051    1.07036       38  0.1497  1   -1    4    5 
 PK463        92.081    1.07009      150  0.1498  1   -3    4    3 
 PK464        92.114    1.06979      152  0.1519  1    1    4    5 
 PK465        92.194    1.06907      107  0.1531  1    3    4    3 
 PK466        92.214    1.06889       47  0.1510  1   -4    3    3 
 PK467        92.216    1.06888      246  0.1510  1   -1    2    7 
 PK468        92.237    1.06869       72  0.1500  1   -2    1    7 
 PK469        92.238    1.07133       53  0.1500  2    0    5    3 
 PK470        92.253    1.07120      129  0.1500  2   -2    5    1 
 PK471        92.278    1.07097       25  0.1511  2    2    5    1 
 PK472        92.281    1.06829      215  0.1501  1   -4    1    5 
 PK473        92.304    1.06808       17  0.1533  1    1    2    7 
 PK474        92.347    1.07036       19  0.1502  2   -1    4    5 
 PK475        92.365    1.06754      287  0.1545  1    4    3    3 
 PK476        92.377    1.07009       75  0.1502  2   -3    4    3 
 PK477        92.390    1.06732       31  0.1524  1   -5    0    3 
 PK478        92.394    1.06728      107  0.1535  1   -5    2    1 
 PK479        92.410    1.06979       77  0.1524  2    1    4    5 
 PK480        92.413    1.06711      255  0.1546  1    2    1    7 
 PK481        92.457    1.06672      170  0.1547  1    5    2    1 
 PK482        92.491    1.06907       54  0.1537  2    3    4    3 
 PK483        92.510    1.06889       23  0.1515  2   -4    3    3 
 PK484        92.512    1.06888      124  0.1515  2   -1    2    7 
 PK485        92.533    1.06869       36  0.1505  2   -2    1    7 
 PK486        92.534    1.06603        6  0.1559  1    4    1    5 
 PK487        92.578    1.06829      108  0.1506  2   -4    1    5 
 PK488        92.579    1.06563       24  0.1560  1    5    0    3 
 PK489        92.601    1.06808        9  0.1539  2    1    2    7 
 PK490        92.662    1.06754      143  0.1551  2    4    3    3 
 PK491        92.687    1.06732       15  0.1529  2   -5    0    3 
 PK492        92.691    1.06728       53  0.1540  2   -5    2    1 
 PK493        92.711    1.06711      126  0.1552  2    2    1    7 
 PK494        92.754    1.06672       85  0.1553  2    5    2    1 
 PK495        92.832    1.06603        3  0.1565  2    4    1    5 
 PK496        92.877    1.06563       12  0.1566  2    5    0    3 
 PK497        93.954    1.05362      513  0.1516  1   -1    5    3 
 PK498        93.992    1.05330      701  0.1540  1    1    5    3 
 PK499        94.170    1.05177      130  0.1519  1   -3    3    5 
 PK500        94.260    1.05362      253  0.1520  2   -1    5    3 
 PK501        94.298    1.05330      346  0.1545  2    1    5    3 
 PK502        94.360    1.05016      115  0.1583  1    3    3    5 
 PK503        94.399    1.04982      100  0.1559  1   -5    1    3 
 PK504        94.477    1.05177       64  0.1524  2   -3    3    5 
 PK505        94.589    1.04822       31  0.1601  1    5    1    3 
 PK506        94.668    1.05016       56  0.1589  2    3    3    5 
 PK507        94.707    1.04982       49  0.1565  2   -5    1    3 
 PK508        94.898    1.04822       15  0.1607  2    5    1    3 
 PK509        94.982    1.04492        6  0.1538  1   -2    5    2 
 PK510        95.032    1.04449        1  0.1564  1    2    5    2 
 PK511        95.168    1.04336        1  0.1540  1   -2    3    6 
 PK512        95.239    1.04277        0  0.1529  1   -3    2    6 
 PK513        95.293    1.04492        3  0.1543  2   -2    5    2 
 PK514        95.320    1.04210        0  0.1595  1    2    3    6 
 PK515        95.344    1.04449        0  0.1569  2    2    5    2 
 PK516        95.400    1.04144       13  0.1584  1   -5    2    2 
 PK517        95.467    1.04089        2  0.1612  1    3    2    6 
 PK518        95.480    1.04336        1  0.1545  2   -2    3    6 
 PK519        95.527    1.04039       12  0.1613  1    5    2    2 
 PK520        95.552    1.04277        0  0.1534  2   -3    2    6 
 PK521        95.633    1.04210        0  0.1601  2    2    3    6 
 PK522        95.714    1.04144        6  0.1590  2   -5    2    2 
 PK523        95.781    1.04089        1  0.1618  2    3    2    6 
 PK524        95.841    1.04039        6  0.1619  2    5    2    2 
 PK525        97.256    1.02645     4288  0.1618  1    4    4    0 
 PK526        97.383    1.02544     2410  0.1620  1    0    0    8 
 PK527        97.580    1.02645     2138  0.1624  2    4    4    0 
 PK528        97.708    1.02544     1200  0.1626  2    0    0    8 
 PK529        98.129    1.01964      148  0.1580  1   -2    4    5 
 PK530        98.250    1.01870      336  0.1629  1   -4    4    1 
 PK531        98.256    1.01866      168  0.1644  1    2    4    5 
 PK532        98.282    1.01846       34  0.1598  1   -2    2    7 
 PK533        98.301    1.01831      330  0.1645  1    4    4    1 
 PK534        98.327    1.01811       51  0.1599  1   -4    2    5 
 PK535        98.458    1.01964       74  0.1586  2   -2    4    5 
 PK536        98.461    1.01709       39  0.1664  1    2    2    7 
 PK537        98.580    1.01870      169  0.1635  2   -4    4    1 
 PK538        98.582    1.01616       55  0.1683  1    4    2    5 
 PK539        98.586    1.01866       84  0.1651  2    2    4    5 
 PK540        98.612    1.01846       17  0.1604  2   -2    2    7 
 PK541        98.631    1.01831      165  0.1652  2    4    4    1 
 PK542        98.657    1.01811       26  0.1605  2   -4    2    5 
 PK543        98.791    1.01709       19  0.1671  2    2    2    7 
 PK544        98.914    1.01616       27  0.1690  2    4    2    5 
 PK545        99.052    1.01259        4  0.1619  1    0    5    4 
 PK546        99.173    1.01169        0  0.1605  1   -3    4    4 
 PK547        99.301    1.01073        1  0.1624  1   -4    3    4 
 PK548        99.326    1.01054        1  0.1673  1    3    4    4 
 PK549        99.386    1.01259        2  0.1625  2    0    5    4 
 PK550        99.411    1.00990        0  0.1658  1    0    1    8 
 PK551        99.505    1.00920        2  0.1694  1    4    3    4 
 PK552        99.508    1.01169        0  0.1611  2   -3    4    4 
 PK553        99.636    1.01073        1  0.1629  2   -4    3    4 
 PK554        99.662    1.01054        0  0.1680  2    3    4    4 
 PK555        99.747    1.00990        0  0.1665  2    0    1    8 
 PK556        99.842    1.00920        1  0.1701  2    4    3    4 
 PK557       100.066    1.00504       79  0.1612  1   -2    5    3 
 PK558       100.143    1.00448      170  0.1664  1    2    5    3 
 PK559       100.317    1.00321      130  0.1667  1    0    3    7 
 PK560       100.380    1.00275       74  0.1617  1   -3    0    7 
 PK561       100.406    1.00504       39  0.1617  2   -2    5    3 
 PK562       100.470    1.00209      137  0.1670  1   -5    2    3 
 PK563       100.484    1.00448       84  0.1670  2    2    5    3 
 PK564       100.649    1.00079        4  0.1726  1    3    0    7 
 PK565       100.658    1.00321       65  0.1673  2    0    3    7 
 PK566       100.663    1.00069       33  0.1727  1    5    2    3 
 PK567       100.722    1.00275       37  0.1622  2   -3    0    7 
 PK568       100.813    1.00209       69  0.1677  2   -5    2    3 
 PK569       100.993    1.00079        2  0.1734  2    3    0    7 
 PK570       101.007    1.00069       16  0.1734  2    5    2    3 
 PK571       101.086    0.99764      726  0.1637  1   -1    5    4 
 PK572       101.137    0.99728      598  0.1673  1    1    5    4 
 PK573       101.168    0.99706      765  0.1674  1    3    5    0 
 PK574       101.240    0.99654      339  0.1675  1    0    4    6 
 PK575       101.301    0.99611      443  0.1677  1   -4    4    2 
 PK576       101.404    0.99538      571  0.1715  1    4    4    2 
 PK577       101.421    0.99525      321  0.1679  1   -1    1    8 
 PK578       101.432    0.99764      367  0.1643  2   -1    5    4 
 PK579       101.439    0.99513       79  0.1643  1   -4    0    6 
 PK580       101.484    0.99728      302  0.1680  2    1    5    4 
 PK581       101.513    0.99460      185  0.1681  1   -5    1    4 
 PK582       101.515    0.99706      386  0.1681  2    3    5    0 
 PK583       101.521    0.99454      358  0.1717  1    5    3    0 
 PK584       101.524    0.99452      238  0.1717  1    1    1    8 
 PK585       101.587    0.99654      171  0.1682  2    0    4    6 
 PK586       101.649    0.99611      224  0.1683  2   -4    4    2 
 PK587       101.748    0.99294      171  0.1760  1    4    0    6 
 PK588       101.752    0.99538      289  0.1722  2    4    4    2 
 PK589       101.770    0.99525      163  0.1685  2   -1    1    8 
 PK590       101.770    0.99278      125  0.1760  1    5    1    4 
 PK591       101.787    0.99513       40  0.1649  2   -4    0    6 
 PK592       101.862    0.99460       94  0.1687  2   -5    1    4 
 PK593       101.870    0.99454      181  0.1725  2    5    3    0 
 PK594       101.873    0.99452      120  0.1725  2    1    1    8 
 PK595       102.098    0.99294       86  0.1768  2    4    0    6 
 PK596       102.121    0.99278       63  0.1768  2    5    1    4 
 PK597       102.180    0.98991      402  0.1684  1   -3    5    1 
 PK598       102.219    0.98964      518  0.1703  1    3    5    1 
 PK599       102.339    0.98880      159  0.1686  1   -1    3    7 
 PK600       102.426    0.98820        1  0.1651  1   -3    1    7 
 PK601       102.430    0.98817      155  0.1726  1    1    3    7 
 PK602       102.521    0.98754      217  0.1728  1   -5    3    1 
 PK603       102.533    0.98991      202  0.1690  2   -3    5    1 
 PK604       102.572    0.98964      259  0.1710  2    3    5    1 
 PK605       102.586    0.98709      134  0.1749  1    5    3    1 
 PK606       102.694    0.98880       80  0.1693  2   -1    3    7 
 PK607       102.698    0.98632        1  0.1771  1    3    1    7 
 PK608       102.781    0.98820        0  0.1657  2   -3    1    7 
 PK609       102.785    0.98817       78  0.1734  2    1    3    7 
 PK610       102.877    0.98754      110  0.1736  2   -5    3    1 
 PK611       102.942    0.98709       68  0.1757  2    5    3    1 
 PK612       103.054    0.98632        0  0.1779  2    3    1    7 
 PK613       103.276    0.98237        1  0.1694  1   -1    4    6 
 PK614       103.354    0.98184        1  0.1735  1    1    4    6 
 PK615       103.493    0.98090        1  0.1679  1   -4    1    6 
 PK616       103.636    0.98237        1  0.1701  2   -1    4    6 
 PK617       103.715    0.98184        1  0.1742  2    1    4    6 
 PK618       103.804    0.97881        4  0.1806  1    4    1    6 
 PK619       103.855    0.98090        0  0.1685  2   -4    1    6 
 PK620       104.168    0.97881        2  0.1814  2    4    1    6 
 PK621       105.088    0.97035     1752  0.1686  1    0    6    0 
 PK622       105.281    0.96910     3662  0.1731  1   -3    5    2 
 PK623       105.359    0.96859     3937  0.1776  1    3    5    2 
 PK624       105.447    0.96803     3930  0.1692  1   -3    3    6 
 PK625       105.460    0.97035      876  0.1692  2    0    6    0 
 PK626       105.563    0.96729     2513  0.1736  1   -2    0    8 
 PK627       105.577    0.96719     4673  0.1780  1    0    2    8 
 PK628       105.614    0.96696     4375  0.1781  1   -5    3    2 
 PK629       105.655    0.96910     1831  0.1738  2   -3    5    2 
 PK630       105.683    0.96652     3821  0.1826  1    3    3    6 
 PK631       105.734    0.96859     1970  0.1783  2    3    5    2 
 PK632       105.745    0.96612     4691  0.1828  1    5    3    2 
 PK633       105.772    0.96595     2168  0.1828  1    2    0    8 
 PK634       105.822    0.96803     1967  0.1698  2   -3    3    6 
 PK635       105.896    0.96516     1872  0.1831  1    6    0    0 
 PK636       105.938    0.96729     1259  0.1743  2   -2    0    8 
 PK637       105.953    0.96719     2340  0.1788  2    0    2    8 
 PK638       105.990    0.96696     2191  0.1789  2   -5    3    2 
 PK639       106.059    0.96652     1915  0.1835  2    3    3    6 
 PK640       106.122    0.96612     2351  0.1837  2    5    3    2 
 PK641       106.137    0.96363      425  0.1715  1    0    6    1 
 PK642       106.149    0.96595     1085  0.1837  2    2    0    8 
 PK643       106.274    0.96516      938  0.1840  2    6    0    0 
 PK644       106.480    0.96147      211  0.1765  1   -4    4    3 
 PK645       106.516    0.96363      213  0.1721  2    0    6    1 
 PK646       106.638    0.96048      230  0.1836  1    4    4    3 
 PK647       106.862    0.96147      106  0.1773  2   -4    4    3 
 PK648       107.021    0.96048      115  0.1845  2    4    4    3 
 PK649       107.198    0.95701       14  0.1745  1    1    6    0 
 PK650       107.337    0.95615        6  0.1725  1   -2    5    4 
 PK651       107.443    0.95551        2  0.1819  1    2    5    4 
 PK652       107.585    0.95701        7  0.1752  2    1    6    0 
 PK653       107.641    0.95430        0  0.1799  1   -1    2    8 
 PK654       107.656    0.95421        1  0.1776  1   -2    1    8 
 PK655       107.725    0.95615        3  0.1732  2   -2    5    4 
 PK656       107.735    0.95373        1  0.1801  1   -5    2    4 
 PK657       107.746    0.95366        3  0.1849  1    1    2    8 
 PK658       107.832    0.95551        1  0.1827  2    2    5    4 
 PK659       107.868    0.95292        0  0.1876  1    2    1    8 
 PK660       107.993    0.95216       17  0.1879  1    6    1    0 
 PK661       107.999    0.95212        2  0.1904  1    5    2    4 
 PK662       108.031    0.95430        0  0.1807  2   -1    2    8 
 PK663       108.046    0.95421        0  0.1784  2   -2    1    8 
 PK664       108.125    0.95373        0  0.1810  2   -5    2    4 
 PK665       108.137    0.95366        2  0.1858  2    1    2    8 
 PK666       108.252    0.95060      108  0.1753  1   -1    6    1 
 PK667       108.259    0.95292        0  0.1885  2    2    1    8 
 PK668       108.266    0.95052       75  0.1776  1    1    6    1 
 PK669       108.386    0.95216        8  0.1888  2    6    1    0 
 PK670       108.392    0.95212        1  0.1913  2    5    2    4 
 PK671       108.423    0.94958       41  0.1803  1    0    5    5 
 PK672       108.529    0.94895      150  0.1758  1   -3    4    5 
 PK673       108.608    0.94848       31  0.1783  1   -2    3    7 
 PK674       108.647    0.95060       55  0.1760  2   -1    6    1 
 PK675       108.655    0.94820      277  0.1784  1   -4    3    5 
 PK676       108.660    0.95052       38  0.1784  2    1    6    1 
 PK677       108.676    0.94808       15  0.1760  1   -3    2    7 
 PK678       108.728    0.94776       51  0.1883  1    3    4    5 
 PK679       108.794    0.94737      234  0.1885  1    2    3    7 
 PK680       108.819    0.94958       21  0.1811  2    0    5    5 
 PK681       108.828    0.94717       13  0.1812  1   -5    0    5 
 PK682       108.921    0.94662        1  0.1913  1    4    3    5 
 PK683       108.925    0.94895       75  0.1765  2   -3    4    5 
 PK684       108.955    0.94642      130  0.1914  1    3    2    7 
 PK685       109.005    0.94848       15  0.1791  2   -2    3    7 
 PK686       109.019    0.94605      251  0.1890  1   -6    1    1 
 PK687       109.053    0.94820      137  0.1792  2   -4    3    5 
 PK688       109.073    0.94808        7  0.1768  2   -3    2    7 
 PK689       109.099    0.94558        5  0.1917  1    6    1    1 
 PK690       109.126    0.94776       25  0.1893  2    3    4    5 
 PK691       109.161    0.94521       91  0.1945  1    5    0    5 
 PK692       109.193    0.94737      116  0.1894  2    2    3    7 
 PK693       109.226    0.94717        7  0.1820  2   -5    0    5 
 PK694       109.319    0.94429      605  0.1784  1    0    6    2 
 PK695       109.321    0.94662        1  0.1923  2    4    3    5 
 PK696       109.355    0.94642       65  0.1924  2    3    2    7 
 PK697       109.419    0.94605      126  0.1900  2   -6    1    1 
 PK698       109.499    0.94558        3  0.1927  2    6    1    1 
 PK699       109.562    0.94521       45  0.1955  2    5    0    5 
 PK700       109.581    0.94276      338  0.1789  1   -2    4    6 
 PK701       109.721    0.94429      298  0.1792  2    0    6    2 
 PK702       109.742    0.94183      311  0.1894  1    2    4    6 
 PK703       109.777    0.94163      242  0.1793  1   -4    2    6 
 PK704       109.986    0.94276       94  0.1797  2   -2    4    6

_reflns_number_observed                704
_reflns_limit_h_min                   -5
_reflns_limit_h_max                    6
_reflns_limit_k_min                    0
_reflns_limit_k_max                    6
_reflns_limit_l_min                    0
_reflns_limit_l_max                    8

loop_
	  _pd_meas_intensity_total
	  _pd_calc_intensity_total
 
 
 942	865	
 874	861	
 874	857	
 900	853	
 812	850	
 841	846	
 904	842	
 798	838	
 841	835	
 834	831	
 827	827	
 819	824	
 896	820	
 852	816	
 823	813	
 795	809	
 830	806	
 823	802	
 823	799	
 867	795	
 823	792	
 819	788	
 795	785	
 827	782	
 770	778	
 795	775	
 798	771	
 777	768	
 756	765	
 760	761	
 798	758	
 784	755	
 819	752	
 739	748	
 816	745	
 781	742	
 756	739	
 781	736	
 699	733	
 716	730	
 753	726	
 746	723	
 756	720	
 722	717	
 660	714	
 743	711	
 689	708	
 702	705	
 641	702	
 709	699	
 692	696	
 670	694	
 647	691	
 736	688	
 722	685	
 673	682	
 650	679	
 628	676	
 660	674	
 683	671	
 666	668	
 638	665	
 657	663	
 663	660	
 653	657	
 663	655	
 613	652	
 670	649	
 609	647	
 622	644	
 609	641	
 628	639	
 631	636	
 653	634	
 606	631	
 585	629	
 625	626	
 616	624	
 616	621	
 609	619	
 634	616	
 609	614	
 641	611	
 594	609	
 564	606	
 561	604	
 613	602	
 570	599	
 564	597	
 558	595	
 582	592	
 588	590	
 564	588	
 561	586	
 555	583	
 546	581	
 561	579	
 567	577	
 600	574	
 582	572	
 634	570	
 600	568	
 609	566	
 679	564	
 673	561	
 686	559	
 699	557	
 739	555	
 692	553	
 644	551	
 683	549	
 631	547	
 666	545	
 683	543	
 628	541	
 606	539	
 616	537	
 616	535	
 573	533	
 606	531	
 576	529	
 558	527	
 523	525	
 555	524	
 552	522	
 579	520	
 582	518	
 529	516	
 498	514	
 515	512	
 484	511	
 520	509	
 476	507	
 523	505	
 498	504	
 473	502	
 498	500	
 498	498	
 484	497	
 428	495	
 423	493	
 446	492	
 425	490	
 403	488	
 428	487	
 431	485	
 441	483	
 428	482	
 385	480	
 410	478	
 441	477	
 436	475	
 460	474	
 408	472	
 380	471	
 418	469	
 413	468	
 433	466	
 405	464	
 395	469	
 405	474	
 446	475	
 420	477	
 413	479	
 454	484	
 468	494	
 538	507	
 585	531	
 729	588	
 1000	887	
 1292	1965	
 2036	3289	
 3474	4832	
 6320	6459	
 7810	7662	
 6113	6217	
 2936	2913	
 908	811	
 487	548	
 476	506	
 457	484	
 431	470	
 446	460	
 380	453	
 383	431	
 398	427	
 388	426	
 385	425	
 356	424	
 408	422	
 420	421	
 385	420	
 403	419	
 340	418	
 361	416	
 368	415	
 373	414	
 373	413	
 373	412	
 405	411	
 385	409	
 385	408	
 363	407	
 410	406	
 352	405	
 345	404	
 366	403	
 361	402	
 366	401	
 371	400	
 352	398	
 371	397	
 356	396	
 363	395	
 438	394	
 418	393	
 487	392	
 498	391	
 431	390	
 354	389	
 329	388	
 333	387	
 388	386	
 354	425	
 460	450	
 546	479	
 767	518	
 1118	594	
 1775	788	
 3073	2685	
 5320	7707	
 9764	11888	
 21243	16075	
 26022	23549	
 11543	11302	
 1986	1633	
 676	796	
 541	603	
 457	519	
 462	474	
 436	401	
 405	377	
 395	368	
 410	367	
 398	367	
 354	366	
 359	365	
 359	364	
 368	363	
 390	362	
 349	362	
 356	361	
 368	360	
 342	359	
 356	359	
 359	358	
 335	357	
 354	356	
 366	356	
 320	355	
 317	354	
 326	353	
 342	353	
 331	352	
 345	351	
 349	350	
 324	350	
 342	349	
 326	348	
 335	348	
 308	347	
 329	346	
 313	346	
 313	347	
 333	347	
 347	347	
 352	347	
 366	348	
 368	355	
 410	364	
 470	384	
 597	507	
 819	1005	
 1260	1407	
 2352	1937	
 2215	2329	
 1143	1083	
 520	428	
 393	372	
 324	356	
 340	346	
 352	337	
 331	333	
 331	333	
 311	332	
 322	331	
 352	331	
 354	330	
 308	330	
 324	329	
 313	329	
 352	328	
 329	328	
 293	327	
 298	327	
 317	326	
 322	325	
 300	325	
 315	324	
 285	324	
 306	323	
 315	323	
 293	322	
 322	322	
 352	321	
 322	321	
 345	321	
 359	320	
 333	320	
 342	319	
 308	319	
 329	318	
 324	318	
 340	317	
 333	317	
 324	316	
 383	316	
 371	316	
 335	315	
 349	315	
 342	315	
 361	315	
 373	314	
 363	313	
 405	313	
 354	312	
 366	312	
 375	311	
 373	311	
 333	311	
 352	310	
 347	310	
 354	309	
 361	309	
 354	309	
 378	308	
 340	308	
 359	308	
 373	307	
 354	307	
 340	306	
 345	306	
 342	306	
 333	305	
 359	305	
 354	305	
 361	304	
 345	304	
 349	304	
 373	303	
 359	303	
 320	303	
 329	302	
 333	302	
 333	302	
 331	301	
 324	301	
 359	301	
 304	300	
 324	300	
 333	300	
 304	300	
 304	299	
 345	299	
 352	299	
 331	298	
 333	298	
 331	298	
 324	297	
 320	297	
 326	297	
 359	297	
 352	296	
 347	296	
 356	296	
 359	296	
 356	295	
 373	295	
 336	295	
 376	295	
 379	294	
 389	294	
 385	294	
 353	294	
 346	293	
 362	293	
 368	293	
 375	353	
 385	361	
 420	519	
 418	552	
 503	593	
 644	645	
 809	711	
 957	799	
 1243	1112	
 1595	1396	
 1754	1732	
 2221	2222	
 3364	3041	
 5569	4640	
 11223	9573	
 24512	26233	
 57660	55514	
 105747	110329	
 163721	159521	
 192173	193938	
 156272	156449	
 83883	89130	
 31395	33060	
 7289	6659	
 2876	3687	
 1801	2561	
 1397	1937	
 1028	1546	
 919	1282	
 819	1094	
 719	879	
 631	461	
 573	306	
 476	286	
 462	286	
 444	285	
 395	285	
 400	285	
 345	285	
 304	286	
 326	286	
 304	287	
 315	287	
 317	287	
 340	288	
 338	288	
 317	289	
 340	290	
 315	292	
 322	295	
 300	301	
 335	311	
 371	339	
 460	487	
 739	856	
 1454	1279	
 1110	1123	
 863	824	
 449	463	
 335	332	
 317	309	
 293	299	
 278	293	
 291	290	
 289	288	
 313	286	
 285	285	
 295	284	
 276	283	
 291	283	
 302	282	
 260	281	
 246	280	
 240	280	
 289	280	
 289	280	
 258	280	
 260	280	
 276	280	
 260	280	
 274	280	
 240	280	
 262	280	
 270	281	
 266	281	
 242	281	
 287	282	
 322	284	
 420	287	
 631	295	
 845	338	
 767	455	
 827	597	
 657	650	
 788	749	
 719	657	
 492	479	
 354	365	
 289	292	
 268	285	
 264	282	
 248	281	
 248	279	
 256	279	
 285	278	
 256	278	
 289	277	
 293	277	
 240	276	
 281	279	
 276	279	
 281	280	
 278	281	
 289	289	
 260	291	
 242	294	
 268	302	
 298	307	
 287	314	
 324	324	
 347	337	
 347	357	
 400	390	
 495	451	
 743	609	
 1332	1340	
 2970	3115	
 5616	5870	
 7004	7618	
 9801	9372	
 6734	6605	
 4056	3877	
 2014	1870	
 729	593	
 465	436	
 413	381	
 302	351	
 333	332	
 289	320	
 268	311	
 254	304	
 266	299	
 260	295	
 244	290	
 258	277	
 248	276	
 238	273	
 229	273	
 227	273	
 244	273	
 252	273	
 216	273	
 244	273	
 260	273	
 236	273	
 225	273	
 238	273	
 236	274	
 225	276	
 268	288	
 308	305	
 298	309	
 304	306	
 313	306	
 270	300	
 264	287	
 250	282	
 236	275	
 227	273	
 229	272	
 227	272	
 250	272	
 200	272	
 229	272	
 256	272	
 268	272	
 233	272	
 236	272	
 223	272	
 252	272	
 240	273	
 260	273	
 229	273	
 225	274	
 246	274	
 248	275	
 229	276	
 229	277	
 246	280	
 240	284	
 246	291	
 293	313	
 431	415	
 706	705	
 1131	1039	
 1020	1061	
 763	774	
 523	601	
 352	372	
 254	295	
 254	285	
 258	280	
 246	277	
 223	275	
 229	274	
 242	273	
 223	273	
 264	273	
 196	272	
 240	272	
 256	272	
 248	272	
 270	272	
 298	272	
 270	272	
 266	272	
 293	273	
 274	274	
 248	275	
 291	278	
 238	282	
 258	293	
 333	337	
 457	492	
 767	727	
 795	762	
 726	709	
 686	681	
 457	453	
 361	385	
 317	316	
 266	281	
 258	276	
 244	274	
 264	273	
 240	272	
 234	271	
 238	270	
 266	270	
 268	270	
 252	269	
 252	269	
 227	269	
 270	268	
 244	268	
 240	268	
 266	268	
 227	268	
 260	268	
 281	268	
 268	268	
 272	268	
 283	268	
 254	268	
 244	267	
 274	267	
 246	267	
 240	267	
 262	267	
 278	267	
 270	267	
 221	267	
 256	267	
 276	267	
 289	267	
 283	267	
 315	304	
 359	326	
 371	351	
 371	371	
 428	385	
 462	402	
 452	423	
 506	450	
 561	484	
 597	529	
 712	589	
 767	674	
 856	798	
 1093	991	
 1676	1317	
 2822	1943	
 5616	3805	
 15423	15040	
 46548	49803	
 72698	66713	
 45209	45130	
 36219	37977	
 21923	21166	
 5824	5835	
 1964	2106	
 1122	1351	
 753	1002	
 631	803	
 523	676	
 498	591	
 405	530	
 436	486	
 398	452	
 359	426	
 361	405	
 324	389	
 300	376	
 281	330	
 313	308	
 289	307	
 272	283	
 293	289	
 329	299	
 333	319	
 454	377	
 736	683	
 1575	1639	
 2340	2257	
 1759	1702	
 1323	1400	
 1040	1031	
 498	506	
 345	333	
 274	303	
 289	290	
 244	283	
 246	279	
 266	275	
 260	273	
 242	272	
 272	270	
 268	270	
 238	269	
 246	268	
 262	268	
 227	267	
 264	266	
 240	265	
 221	265	
 248	264	
 264	264	
 248	264	
 227	264	
 266	264	
 234	264	
 250	264	
 260	264	
 278	264	
 231	264	
 283	264	
 268	265	
 236	266	
 231	266	
 260	267	
 242	267	
 248	268	
 272	270	
 262	271	
 304	273	
 306	275	
 295	277	
 308	279	
 295	283	
 285	287	
 287	294	
 306	304	
 324	321	
 352	355	
 470	477	
 874	859	
 1536	1467	
 1964	1870	
 2620	2278	
 2174	2088	
 2816	2938	
 3452	3464	
 1769	1787	
 1463	1625	
 1165	1281	
 541	521	
 361	357	
 324	327	
 329	315	
 278	309	
 298	305	
 281	304	
 331	305	
 281	307	
 354	311	
 311	318	
 326	328	
 345	344	
 425	368	
 628	409	
 1012	496	
 1274	841	
 2334	2032	
 4249	3594	
 3875	3703	
 6561	5878	
 7656	7177	
 6016	5903	
 4796	4527	
 3249	3240	
 1898	2024	
 977	933	
 487	484	
 371	394	
 320	357	
 295	336	
 295	322	
 322	313	
 298	306	
 287	303	
 264	301	
 311	300	
 266	302	
 291	307	
 300	316	
 349	332	
 349	370	
 549	521	
 1269	1208	
 2802	2492	
 2274	2102	
 1292	1322	
 1650	1645	
 1256	1211	
 805	718	
 552	506	
 546	488	
 405	410	
 322	318	
 285	287	
 304	279	
 262	275	
 254	271	
 291	269	
 252	268	
 240	266	
 254	265	
 229	264	
 281	264	
 272	263	
 264	263	
 266	261	
 268	260	
 258	260	
 270	260	
 242	261	
 227	260	
 278	259	
 256	259	
 270	258	
 240	258	
 246	258	
 260	258	
 250	258	
 268	258	
 268	258	
 264	258	
 276	258	
 291	257	
 240	257	
 285	257	
 262	257	
 270	257	
 270	257	
 289	257	
 276	257	
 276	257	
 276	257	
 283	257	
 298	257	
 298	257	
 315	268	
 352	269	
 306	281	
 349	283	
 383	311	
 418	333	
 428	346	
 423	356	
 468	391	
 532	407	
 558	425	
 573	455	
 619	483	
 686	518	
 770	562	
 827	618	
 798	692	
 934	792	
 1073	933	
 1301	1143	
 1796	1479	
 2413	2104	
 4266	3936	
 11543	11318	
 29670	28091	
 37491	37035	
 41057	38800	
 48483	45859	
 50008	46577	
 45662	45377	
 44126	42473	
 23967	22501	
 16002	16712	
 13983	14215	
 4874	4761	
 1822	1824	
 1177	1257	
 852	991	
 689	825	
 622	712	
 538	631	
 476	571	
 441	525	
 473	489	
 405	460	
 400	437	
 368	418	
 371	404	
 361	387	
 400	387	
 415	459	
 558	477	
 503	483	
 492	456	
 425	375	
 420	356	
 324	323	
 333	273	
 272	261	
 278	258	
 287	257	
 266	256	
 272	256	
 295	255	
 278	255	
 276	255	
 285	255	
 285	255	
 270	255	
 293	255	
 295	256	
 260	257	
 304	262	
 300	282	
 338	307	
 446	320	
 385	359	
 390	362	
 329	325	
 342	313	
 322	303	
 298	280	
 266	265	
 289	260	
 281	259	
 308	259	
 283	260	
 266	260	
 276	262	
 289	263	
 268	266	
 254	270	
 300	275	
 291	285	
 304	303	
 395	367	
 650	650	
 1148	1162	
 1097	1070	
 984	966	
 1590	1547	
 1595	1578	
 1004	963	
 996	855	
 1097	816	
 969	548	
 597	382	
 523	320	
 503	283	
 395	271	
 293	266	
 287	263	
 285	260	
 270	259	
 242	257	
 266	256	
 260	255	
 252	255	
 214	255	
 254	254	
 264	254	
 242	254	
 250	253	
 231	253	
 221	253	
 214	252	
 231	252	
 240	252	
 240	252	
 270	252	
 266	253	
 281	253	
 266	253	
 274	254	
 315	255	
 289	256	
 289	258	
 268	260	
 283	263	
 291	269	
 270	279	
 320	302	
 380	400	
 795	741	
 1251	1141	
 1000	967	
 634	670	
 719	744	
 702	715	
 462	476	
 322	345	
 302	302	
 268	283	
 268	273	
 262	263	
 234	258	
 227	255	
 272	254	
 233	253	
 254	252	
 264	252	
 295	251	
 317	251	
 287	251	
 272	251	
 276	253	
 283	261	
 295	276	
 283	277	
 256	269	
 260	265	
 244	266	
 242	261	
 274	253	
 244	250	
 207	249	
 231	248	
 238	248	
 219	247	
 234	247	
 229	247	
 218	247	
 205	247	
 254	247	
 252	251	
 283	251	
 240	252	
 291	262	
 254	263	
 256	264	
 291	266	
 317	279	
 338	282	
 291	289	
 326	297	
 363	302	
 313	310	
 340	318	
 345	327	
 340	338	
 368	352	
 347	369	
 390	391	
 454	421	
 498	461	
 532	520	
 641	610	
 878	775	
 1305	1284	
 3018	3186	
 6561	6341	
 5569	5812	
 5202	5461	
 11236	11381	
 17689	15689	
 14057	14169	
 17507	16983	
 15563	15698	
 13762	13336	
 10455	10317	
 7645	7648	
 4406	4966	
 3518	3559	
 1702	1646	
 753	827	
 538	618	
 468	527	
 436	471	
 375	436	
 378	415	
 373	419	
 457	521	
 753	825	
 819	934	
 558	618	
 441	524	
 603	666	
 515	604	
 371	403	
 329	332	
 278	325	
 274	300	
 242	275	
 225	267	
 281	261	
 272	252	
 250	251	
 260	250	
 238	248	
 266	248	
 242	249	
 248	249	
 233	252	
 258	264	
 262	305	
 329	350	
 285	314	
 278	281	
 254	293	
 260	303	
 300	281	
 272	288	
 295	315	
 295	294	
 268	267	
 252	274	
 268	283	
 270	268	
 260	257	
 246	255	
 234	257	
 248	259	
 258	263	
 283	269	
 315	281	
 333	320	
 418	439	
 609	580	
 549	568	
 726	768	
 1351	1366	
 1458	1469	
 1044	1064	
 1310	1254	
 1383	1420	
 942	978	
 628	644	
 653	663	
 543	557	
 363	373	
 276	307	
 274	294	
 274	291	
 256	294	
 264	302	
 302	317	
 363	358	
 512	511	
 923	919	
 1256	1289	
 1516	1504	
 2048	1992	
 2340	2295	
 2053	2026	
 1681	1676	
 1590	1701	
 1686	1795	
 1565	1583	
 973	1041	
 634	704	
 603	669	
 564	637	
 400	458	
 340	329	
 252	289	
 274	277	
 260	271	
 272	268	
 254	267	
 233	268	
 229	272	
 283	289	
 352	369	
 561	584	
 743	733	
 564	568	
 383	406	
 366	445	
 484	496	
 395	400	
 320	298	
 234	263	
 223	254	
 233	250	
 208	248	
 208	246	
 225	246	
 200	245	
 242	245	
 246	246	
 254	252	
 274	272	
 281	289	
 270	274	
 240	257	
 258	261	
 270	271	
 276	274	
 246	275	
 252	280	
 306	290	
 252	276	
 254	263	
 281	261	
 298	265	
 283	256	
 254	249	
 266	246	
 276	248	
 272	249	
 281	257	
 298	258	
 276	267	
 287	270	
 298	276	
 289	279	
 320	286	
 311	290	
 317	295	
 311	301	
 331	308	
 342	315	
 340	325	
 342	336	
 340	350	
 345	367	
 423	388	
 431	417	
 495	453	
 585	504	
 709	577	
 837	690	
 1068	912	
 1655	1632	
 3736	3865	
 7140	6950	
 7332	7882	
 10803	10605	
 15860	15447	
 19846	19204	
 19148	18639	
 15516	14721	
 10125	10597	
 9276	9448	
 7999	8455	
 6143	6335	
 2869	3032	
 1247	1318	
 812	822	
 573	653	
 492	561	
 425	504	
 431	470	
 413	464	
 512	547	
 881	838	
 1173	1139	
 953	973	
 729	730	
 798	744	
 867	909	
 957	984	
 774	795	
 558	571	
 408	450	
 418	453	
 425	454	
 345	374	
 289	303	
 221	277	
 250	262	
 258	257	
 258	251	
 244	249	
 234	245	
 252	244	
 246	244	
 221	246	
 242	250	
 223	254	
 283	256	
 274	254	
 289	255	
 274	262	
 208	260	
 274	252	
 227	248	
 242	249	
 244	250	
 214	246	
 238	244	
 231	244	
 214	246	
 252	248	
 216	252	
 248	262	
 274	299	
 395	391	
 503	480	
 431	454	
 425	417	
 431	450	
 495	508	
 436	461	
 423	428	
 492	534	
 606	653	
 501	514	
 361	357	
 311	341	
 349	405	
 375	396	
 329	316	
 278	276	
 260	269	
 227	274	
 322	299	
 378	393	
 597	589	
 647	708	
 585	618	
 526	548	
 726	681	
 749	811	
 739	768	
 619	686	
 552	602	
 495	512	
 433	447	
 403	410	
 385	395	
 304	333	
 293	283	
 266	266	
 238	262	
 278	263	
 240	267	
 283	275	
 285	299	
 366	388	
 600	631	
 957	934	
 1040	986	
 893	858	
 827	737	
 696	683	
 647	712	
 686	665	
 520	548	
 418	416	
 304	324	
 278	297	
 289	284	
 246	264	
 246	252	
 246	247	
 227	245	
 252	243	
 208	242	
 264	241	
 262	241	
 240	240	
 234	240	
 260	241	
 223	243	
 227	242	
 221	241	
 219	240	
 238	240	
 254	243	
 258	242	
 229	242	
 233	241	
 221	240	
 242	243	
 229	243	
 274	244	
 262	244	
 227	246	
 244	248	
 227	249	
 264	250	
 264	251	
 262	253	
 352	255	
 320	257	
 283	260	
 244	263	
 291	267	
 291	272	
 302	277	
 315	285	
 298	294	
 342	307	
 324	325	
 338	352	
 393	393	
 449	470	
 670	709	
 1521	1599	
 3306	3565	
 4497	4672	
 2737	2996	
 1712	1612	
 2008	1977	
 3729	3787	
 4599	4576	
 2970	2864	
 2019	1800	
 2364	2418	
 3364	3333	
 2769	2667	
 1575	1433	
 1028	976	
 1085	1229	
 1283	1384	
 949	933	
 512	541	
 395	409	
 388	423	
 546	563	
 756	763	
 805	816	
 650	707	
 538	545	
 535	544	
 609	616	
 567	611	
 573	561	
 468	464	
 368	379	
 333	332	
 324	307	
 322	305	
 333	301	
 274	276	
 283	259	
 266	253	
 250	248	
 274	249	
 287	254	
 260	266	
 272	276	
 272	267	
 223	256	
 268	256	
 274	264	
 268	266	
 266	260	
 250	258	
 281	264	
 287	264	
 248	255	
 231	249	
 246	250	
 233	256	
 246	259	
 260	262	
 270	280	
 311	307	
 285	316	
 335	339	
 473	437	
 625	568	
 622	620	
 679	681	
 827	763	
 760	746	
 736	723	
 660	660	
 526	591	
 552	574	
 512	512	
 433	446	
 393	398	
 331	352	
 338	329	
 322	340	
 436	445	
 660	674	
 722	787	
 523	599	
 492	469	
 613	579	
 878	833	
 900	911	
 739	774	
 746	735	
 743	750	
 712	707	
 585	635	
 546	530	
 501	486	
 484	477	
 405	421	
 349	371	
 361	347	
 361	349	
 415	464	
 791	765	
 965	1019	
 726	806	
 512	495	
 415	391	
 465	480	
 600	640	
 532	614	
 462	446	
 378	338	
 342	295	
 326	285	
 311	291	
 331	286	
 274	273	
 285	261	
 289	255	
 272	254	
 262	252	
 283	246	
 268	243	
 274	243	
 276	246	
 266	258	
 313	278	
 363	293	
 326	294	
 320	280	
 287	274	
 306	278	
 326	281	
 326	280	
 333	271	
 302	266	
 326	266	
 317	264	
 302	263	
 276	267	
 283	268	
 317	274	
 333	277	
 308	280	
 349	286	
 338	291	
 306	296	
 342	302	
 352	309	
 373	316	
 347	325	
 363	336	
 371	349	
 385	364	
 462	383	
 490	407	
 479	438	
 532	479	
 638	535	
 709	618	
 812	771	
 1190	1189	
 2238	2378	
 4414	4530	
 5485	6115	
 5729	6280	
 6632	6792	
 8179	8244	
 10481	10922	
 12642	13192	
 13182	12851	
 10226	9991	
 9470	9391	
 12155	11884	
 14235	14115	
 13355	13370	
 9813	9578	
 5805	5664	
 4514	4459	
 4727	4939	
 4813	5072	
 3860	4026	
 2488	2475	
 1355	1353	
 856	868	
 676	755	
 716	782	
 732	737	
 552	599	
 479	521	
 512	511	
 481	513	
 503	514	
 405	464	
 356	399	
 340	370	
 373	358	
 315	333	
 302	311	
 278	296	
 285	289	
 276	282	
 272	278	
 252	274	
 278	269	
 281	263	
 287	259	
 262	256	
 256	255	
 242	251	
 258	249	
 246	244	
 231	241	
 270	242	
 270	242	
 264	241	
 223	240	
 270	242	
 291	243	
 254	245	
 244	249	
 293	258	
 289	283	
 349	347	
 457	443	
 468	486	
 462	474	
 515	492	
 543	532	
 597	616	
 767	711	
 760	724	
 699	723	
 760	762	
 706	731	
 650	633	
 579	541	
 532	479	
 449	456	
 449	457	
 428	425	
 378	359	
 333	301	
 285	271	
 272	257	
 268	249	
 225	245	
 248	243	
 231	241	
 229	241	
 248	240	
 208	240	
 246	240	
 276	240	
 214	240	
 216	241	
 252	242	
 262	244	
 225	246	
 244	250	
 276	256	
 291	271	
 308	316	
 431	446	
 657	673	
 809	813	
 625	681	
 465	479	
 441	401	
 465	432	
 543	514	
 532	585	
 532	554	
 481	466	
 378	388	
 320	335	
 295	302	
 317	290	
 291	294	
 283	298	
 264	285	
 252	263	
 262	251	
 238	248	
 248	246	
 274	243	
 246	240	
 234	237	
 254	236	
 244	235	
 229	236	
 238	237	
 258	240	
 223	242	
 260	243	
 238	244	
 225	243	
 244	241	
 234	239	
 250	240	
 238	240	
 229	241	
 214	241	
 208	240	
 207	238	
 233	238	
 238	238	
 248	238	
 225	239	
 244	239	
 234	240	
 234	241	
 268	242	
 229	243	
 219	245	
 248	246	
 256	248	
 231	251	
 246	254	
 254	257	
 289	262	
 260	267	
 270	275	
 278	285	
 262	300	
 317	322	
 390	359	
 423	449	
 644	711	
 1199	1328	
 2250	2206	
 2678	2577	
 2151	2274	
 2145	1976	
 1521	1535	
 1122	1192	
 1139	1263	
 1406	1491	
 1301	1401	
 1131	1206	
 1060	1000	
 729	699	
 454	469	
 368	359	
 363	320	
 304	309	
 320	318	
 352	352	
 408	409	
 465	488	
 631	606	
 706	670	
 641	591	
 462	461	
 373	394	
 347	390	
 415	426	
 495	478	
 438	469	
 378	394	
 352	321	
 289	284	
 285	270	
 274	265	
 270	261	
 252	254	
 246	249	
 256	245	
 246	243	
 252	241	
 236	239	
 238	239	
 238	240	
 208	239	
 231	239	
 238	239	
 227	239	
 210	238	
 231	239	
 218	239	
 227	239	
 233	240	
 212	242	
 240	244	
 242	250	
 258	265	
 276	295	
 326	331	
 333	351	
 352	341	
 347	324	
 345	335	
 347	364	
 390	386	
 363	398	
 428	393	
 356	358	
 322	327	
 317	325	
 308	334	
 347	332	
 295	329	
 304	326	
 354	326	
 349	351	
 413	447	
 573	668	
 889	987	
 1160	1213	
 1203	1208	
 1028	1051	
 885	941	
 949	948	
 1073	1099	
 1346	1302	
 1319	1367	
 1260	1256	
 984	994	
 732	782	
 699	703	
 670	728	
 716	745	
 634	679	
 588	585	
 501	472	
 380	394	
 395	383	
 410	445	
 492	567	
 657	689	
 670	696	
 535	586	
 473	493	
 449	459	
 462	478	
 549	541	
 555	614	
 585	607	
 506	508	
 410	413	
 361	363	
 363	344	
 366	340	
 326	339	
 331	325	
 264	298	
 320	273	
 274	257	
 304	249	
 262	246	
 244	245	
 276	245	
 276	244	
 250	243	
 256	244	
 264	243	
 270	247	
 272	249	
 266	252	
 256	253	
 287	254	
 256	255	
 244	257	
 287	260	
 246	262	
 278	263	
 260	265	
 315	267	
 281	270	
 285	273	
 300	275	
 304	278	
 270	282	
 291	286	
 308	290	
 320	296	
 308	303	
 302	310	
 347	319	
 354	330	
 368	344	
 383	362	
 433	386	
 454	423	
 532	500	
 692	677	
 973	1003	
 1143	1354	
 1265	1482	
 1511	1641	
 2076	2273	
 3087	3254	
 3836	4005	
 4241	4460	
 4650	4812	
 5023	5218	
 5757	6001	
 7396	7279	
 8044	7988	
 8010	7968	
 7733	7569	
 7098	6668	
 5458	5474	
 4565	4715	
 4389	4554	
 4315	4421	
 4008	4002	
 3533	3588	
 3039	3173	
 2463	2507	
 1860	1805	
 1323	1329	
 1024	989	
 749	759	
 638	658	
 628	640	
 600	617	
 573	563	
 564	511	
 473	459	
 431	407	
 383	378	
 390	372	
 349	370	
 340	360	
 315	354	
 340	348	
 293	331	
 322	312	
 322	298	
 266	291	
 293	285	
 242	280	
 268	277	
 264	273	
 233	271	
 281	267	
 268	267	
 246	267	
 262	265	
 272	264	
 256	260	
 274	259	
 272	260	
 272	260	
 264	261	
 291	263	
 256	264	
 270	272	
 302	293	
 315	323	
 354	335	
 317	322	
 320	310	
 293	316	
 342	340	
 398	377	
 433	419	
 446	465	
 484	486	
 462	467	
 438	447	
 433	432	
 428	426	
 484	448	
 515	485	
 535	504	
 492	486	
 481	456	
 425	452	
 490	482	
 564	549	
 538	598	
 473	555	
 501	477	
 454	434	
 512	448	
 541	493	
 549	525	
 546	571	
 622	630	
 594	612	
 541	512	
 449	423	
 405	397	
 420	426	
 
 _pd_meas_number_of_points              2001                                   
 _pd_proc_number_of_points              2001                                   
                                                                               
 #----------------------------------------------------------------#



_computing_structure_refinement
RIETAN
_cell_formula_units_Z
2
_refine_ls_goodness_of_fit_all
3.28
_symmetry_cell_setting
monoclinic
_refine_ls_number_parameters
28
_symmetry_space_group_name_Hall
'-P 2yn'
_diffrn_measurement_device_type
'Rigaku Rotaflex'
_cell_length_a
5.79095(8)
_cell_length_b
5.82210(7)
_cell_angle_gamma
90.0
_cell_length_c
8.20358(12)
_diffrn_ambient_temperature
295
_cell_angle_alpha
90.0
_cell_angle_beta
90.1262(11)
_symmetry_space_group_name_H-M
'P 21/n'
_diffrn_radiation_type
'Cu K\a'
_diffrn_radiation_wavelength
1.540562
_chemical_formula_sum
'Nb0.5 O3 Sr Yb0.5'
loop_
_symmetry_equiv_pos_as_xyz
+x,+y,+z
-x+1/2,+y+1/2,-z+1/2
-x,-y,-z
+x-1/2,-y-1/2,+z-1/2

loop_
_atom_type_symbol
Sr
Yb
Nb
O1
O2
O3

loop_
_atom_site_label
_atom_site_fract_x
_atom_site_fract_y
_atom_site_fract_z
_atom_site_u_iso_or_equiv
_atom_site_thermal_displace_type
_atom_site_occupancy
Sr(1) .006(2) .0271(3) .2511(7) .66(4) Uiso 1.0
Yb(2) .50000 .00000 .00000 .32(4) Uiso 1.0
Nb(3) .00000 .50000 .00000 .26(6) Uiso 1.0
O1(4) .19914 .77266 .03652 .663 Uiso 1.0
O2(5) .27028 .30088 -.96467 .663 Uiso 1.0
O3(6) .42994 .01538 -.26239 .663 Uiso 1.0



# powder data simulated using PLATON:

data_Xray_simulated_1.540562

_publcif_pd_cifplot 'simulated 2021-03-25'

