data_phaseII

loop_
_pd_proc_2theta_corrected
_pd_proc_intensity_net


5.00418	6.6
5.02812	 5.02
5.05206	 0.15147
5.07599	 4.16
5.09993	 4.36
5.12387	 6.56
5.14781	 6.98
5.17175	2.42
5.19569	 0.43147
5.21963	 6.84
5.24356	 5.38
5.2675	4.88
5.29144	 6.02
5.31538	8.58
5.33932	 3.58
5.36326	 3.32
5.3872	 4.6
5.41114	 8.68
5.43507	 7.96
5.45901	 3.56
5.48295	 4.06
5.50689	8.1
5.53083	 7.72
5.55477	6.54
5.57871	 6.32
5.60264	1.02853
5.62658	 1.53164
5.65052	 2.56
5.67446	 11.08
5.6984	 7.34
5.72234	 9.14
5.74628	 9.92
5.77022	 12.14
5.79415	1.67802
5.81809	 15.24
5.84203	3.86
5.86597	 8.08
5.88991	6.34
5.91385	 3.98
5.93779	7.7
5.96172	 0.31232
5.98566	7.24
6.0096	2.2
6.03354	4.08
6.05748	 0.41846
6.08142	13.1
6.10536	3.3
6.1293	3.16
6.15323	 0.24419
6.17717	9.48
6.20111	0.27273
6.22505	3.32
6.24899	 2.88
6.27293	 0.13188
6.29687	 4.6
6.3208	5.86
6.34474	 17.4
6.36868	8.94
6.39262	 2.48
6.41656	11.5
6.4405	 1.50221
6.46444	8.9
6.48837	 0.86487
6.51231	3.16
6.53625	2.3
6.56019	0.62768
6.58413	7.82
6.60807	1.66221
6.63201	 0.70053
6.65595	 4.58
6.67988	 0.96641
6.70382	 3.6
6.72776	2.02
6.7517	 1.75461
6.77564	 9.82
6.79958	 10.1
6.82352	 5.16
6.84745	 6.9
6.87139	 3.9
6.89533	 7.34
6.91927	3.06
6.94321	 9
6.96715	 2.22
6.99109	 4.56
7.01503	 0.28511
7.03896	 0.24825
7.0629	 0.31099
7.08684	 3.98
7.11078	 2.34
7.13472	 9.74
7.15866	 5.42
7.1826	 1.54549
7.20653	 4.78
7.23047	 2.74
7.25441	2.08
7.27835	6.26
7.30229	0.10705
7.32623	6.04
7.35017	6.44
7.3741	 1.39741
7.39804	 0.87891
7.42198	12.74
7.44592	 1.80192
7.46986	2.6
7.4938	 4.86
7.51774	 0.36643
7.54168	 9.48
7.56561	9.18
7.58955	 13.82
7.61349	5.46
7.63743	 8.9
7.66137	0.0246
7.68531	 13.64
7.70925	1.32159
7.73318	 11.6
7.75712	 4.18
7.78106	 11.98
7.805	1.55563
7.82894	 17.5
7.85288	 5.16
7.87682	 8.74
7.90076	 0.53039
7.92469	 17.08
7.94863	1.08666
7.97257	 14.06
7.99651	3.76
8.02045	 12.24
8.04439	9.9
8.06833	 13.02
8.09226	7.66
8.1162	 6.96
8.14014	4.16
8.16408	0.81318
8.18802	3.12
8.21196	 2.24
8.2359	5.72
8.25984	 2.02
8.28377	5.04
8.30771	1.42422
8.33165	3.54
8.35559	6.88
8.37953	3.1
8.40347	7.1
8.42741	7.44
8.45134	 0.96475
8.47528	2.2
8.49922	 1.38776
8.52316	7.88
8.5471	 4.88
8.57104	 1.9695
8.59498	 0.31207
8.61891	 3.16
8.64285	 7.76
8.66679	 8.52
8.69073	 3.86
8.71467	 18.06
8.73861	 4.76
8.76255	4.58
8.78649	3.38
8.81042	10.16
8.83436	14.44
8.8583	13.12
8.88224	13.94
8.90618	17.98
8.93012	27.22
8.95406	26.74
8.97799	30.04
9.00193	26.88
9.02587	28.52
9.04981	21.22
9.07375	25.34
9.09769	21.14
9.12163	23.72
9.14557	13.24
9.1695	23.12
9.19344	8.18
9.21738	18.52
9.24132	13.24
9.26526	23.64
9.2892	17.74
9.31314	19.58
9.33707	26.22
9.36101	31.08
9.38495	28.88
9.40889	36.46
9.43283	42.7
9.45677	44.98
9.48071	58.18
9.50464	70.2
9.52858	82.02
9.55252	88.54
9.57646	102
9.6004	109.1
9.62434	114.14
9.64828	128.78
9.67222	122.92
9.69615	131.34
9.72009	119.18
9.74403	122.94
9.76797	108.36
9.79191	110.3
9.81585	91.56
9.83979	96.02
9.86372	77.28
9.88766	81.44
9.9116	72.78
9.93554	78.28
9.95948	67.28
9.98342	70.1
10.00736	65.74
10.0313	66.16
10.05523	70.34
10.07917	69.94
10.10311	74.64
10.12705	80.22
10.15099	92.34
10.17493	105.26
10.19887	113.48
10.2228	130.3
10.24674	139
10.27068	159.62
10.29462	176.62
10.31856	176.6
10.3425	191.42
10.36644	189.5
10.39038	193.8
10.41431	188.18
10.43825	182.62
10.46219	159.32
10.48613	148.04
10.51007	128.54
10.53401	107.22
10.55795	93.18
10.58188	72.1
10.60582	60.52
10.62976	48.38
10.6537	35.52
10.67764	30.82
10.70158	25.26
10.72552	24.04
10.74945	18.6
10.77339	18.82
10.79733	15.86
10.82127	11.42
10.84521	1.86473
10.86915	13.54
10.89309	 2.08
10.91703	0.33806
10.94096	 9.3
10.9649	2.78
10.98884	 10.6
11.01278	 2.18
11.03672	 4.9
11.06066	 6.7
11.0846	 6.68
11.10853	 6.26
11.13247	 17.06
11.15641	 19.12
11.18035	 9.38
11.20429	 10
11.22823	 7.5
11.25217	 11.52
11.27611	 0.48717
11.30004	 3.74
11.32398	 7.14
11.34792	 4.64
11.37186	0.08557
11.3958	 11.88
11.41974	 0.25749
11.44368	 7.02
11.46761	1.63832
11.49155	1.81679
11.51549	3.3
11.53943	2.22
11.56337	4.9
11.58731	 0.98934
11.61125	7.62
11.63519	1.82793
11.65912	14.2
11.68306	12.8
11.707	16.98
11.73094	31.84
11.75488	26.78
11.77882	25.98
11.80276	42.44
11.82669	34.84
11.85063	44.28
11.87457	54.48
11.89851	66.68
11.92245	56.76
11.94639	80.52
11.97033	74.84
11.99426	91.32
12.0182	90.5
12.04214	104.26
12.06608	113.14
12.09002	115.52
12.11396	132.3
12.1379	151.92
12.16184	164.9
12.18577	200.4
12.20971	229.34
12.23365	265.46
12.25759	312.5
12.28153	353.42
12.30547	425.32
12.32941	511.04
12.35334	577.5
12.37728	686.7
12.40122	790.3
12.42516	908.34
12.4491	1014.28
12.47304	1132.02
12.49698	1254.04
12.52092	1342.82
12.54485	1407.52
12.56879	1467.54
12.59273	1506.74
12.61667	1484.96
12.64061	1455
12.66455	1427.42
12.68849	1359.24
12.71242	1266.14
12.73636	1197.48
12.7603	1105.4
12.78424	1027.02
12.80818	945.38
12.83212	880.7
12.85606	816.76
12.87999	764.28
12.90393	719.56
12.92787	707.1
12.95181	673.14
12.97575	648.82
12.99969	636.1
13.02363	615
13.04757	621.24
13.0715	623.88
13.09544	604.62
13.11938	632.28
13.14332	631.8
13.16726	652.48
13.1912	677.3
13.21514	712.98
13.23907	745.66
13.26301	766.52
13.28695	830.7
13.31089	836.56
13.33483	880.94
13.35877	860.62
13.38271	929.74
13.40665	890.2
13.43058	909.92
13.45452	875.66
13.47846	900.6
13.5024	827.32
13.52634	848.14
13.55028	800.78
13.57422	796.44
13.59815	739.22
13.62209	720.06
13.64603	667.6
13.66997	663.64
13.69391	591.02
13.71785	565.3
13.74179	511.04
13.76573	480.5
13.78966	435.82
13.8136	399.68
13.83754	376.22
13.86148	347.1
13.88542	307.06
13.90936	278.5
13.9333	274.32
13.95723	247.18
13.98117	229.26
14.00511	192.78
14.02905	209.56
14.05299	171
14.07693	171.84
14.10087	157.7
14.1248	169.14
14.14874	141.74
14.17268	126.84
14.19662	153.52
14.22056	124.06
14.2445	138.88
14.26844	135.08
14.29238	147.52
14.31631	135.54
14.34025	165.98
14.36419	156.74
14.38813	200
14.41207	201.52
14.43601	257.94
14.45995	241.44
14.48388	348.64
14.50782	351.4
14.53176	422.06
14.5557	477.72
14.57964	553.74
14.60358	620.1
14.62752	648.98
14.65146	731.66
14.67539	776.2
14.69933	799.74
14.72327	804.46
14.74721	842.54
14.77115	827.8
14.79509	805.4
14.81903	733.42
14.84296	719.4
14.8669	655.86
14.89084	612.86
14.91478	510.1
14.93872	465.8
14.96266	413.1
14.9866	333.28
15.01054	305.38
15.03447	223.56
15.05841	222.92
15.08235	137
15.10629	149.16
15.13023	105.8
15.15417	115.56
15.17811	58.36
15.20204	57.74
15.22598	48.08
15.24992	56.1
15.27386	20.92
15.2978	57.04
15.32174	43.28
15.34568	41.58
15.36961	68
15.39355	70.98
15.41749	98.76
15.44143	66.12
15.46537	117.22
15.48931	83.62
15.51325	132.62
15.53719	113
15.56112	159.42
15.58506	88.52
15.609	161.6
15.63294	148.5
15.65688	165.02
15.68082	135.18
15.70476	187.7
15.72869	179.82
15.75263	190.56
15.77657	208.68
15.80051	229.96
15.82445	249.22
15.84839	249.78
15.87233	290.18
15.89627	325.82
15.9202	320.48
15.94414	355.92
15.96808	372.32
15.99202	404.82
16.01596	402.8
16.0399	437.96
16.06384	407.68
16.08777	430.96
16.11171	400.44
16.13565	444.62
16.15959	366.02
16.18353	404.78
16.20747	342.68
16.23141	342.92
16.25534	298.12
16.27928	317.86
16.30322	257.22
16.32716	250
16.3511	211.22
16.37504	219.86
16.39898	191.4
16.42292	164.9
16.44685	155.38
16.47079	138.46
16.49473	149.42
16.51867	116.68
16.54261	108.44
16.56655	102.06
16.59049	76.4
16.61442	105.74
16.63836	61.7
16.6623	62.72
16.68624	30.94
16.71018	74.5
16.73412	26.68
16.75806	40.76
16.782	11.3
16.80593	44.08
16.82987	18.36
16.85381	15.16
16.87775	12.82
16.90169	32.82
16.92563	13.58
16.94957	9.2
16.9735	28.74
16.99744	46.94
17.02138	23.6
17.04532	20.58
17.06926	33.56
17.0932	40.4
17.11714	31.88
17.14108	25.06
17.16501	45.78
17.18895	42.72
17.21289	39.22
17.23683	39.78
17.26077	33.48
17.28471	46.36
17.30865	31.64
17.33258	35.78
17.35652	18.1
17.38046	37.76
17.4044	43.26
17.42834	27.24
17.45228	0.75158
17.47622	16.88
17.50015	14.94
17.52409	40.34
17.54803	 10.62
17.57197	36.96
17.59591	 0.53405
17.61985	35.98
17.64379	2.02
17.66773	17.3
17.69166	10.5
17.7156	31.84
17.73954	27.8
17.76348	29.26
17.78742	 6.1
17.81136	21.28
17.8353	48.7
17.85923	11.74
17.88317	26.64
17.90711	 10.08
17.93105	60.74
17.95499	10.22
17.97893	11.46
18.00287	5.58
18.02681	31.84
18.05074	14.48
18.07468	20.68
18.09862	 0.34704
18.12256	13
18.1465	 6.48
18.17044	15.7
18.19438	4.92
18.21831	 4.8
18.24225	1.75368
18.26619	14.72
18.29013	 19.88
18.31407	9.3
18.33801	 24.1
18.36195	40.86
18.38589	 23.16
18.40982	7.12
18.43376	 3.26
18.4577	18.84
18.48164	 14.04
18.50558	 1.28642
18.52952	10.92
18.55346	16.1
18.57739	13.34
18.60133	 5.54
18.62527	21.64
18.64921	3.32
18.67315	18.08
18.69709	 0.09803
18.72103	7.9
18.74496	4.96
18.7689	22.06
18.79284	21.46
18.81678	0.32713
18.84072	8.08
18.86466	15.94
18.8886	31.84
18.91254	 3.38
18.93647	9.38
18.96041	16.86
18.98435	3.4
19.00829	27.92



_pd_proc_ls_prof_R_factor
0.091258
_pd_meas_2theta_range_max
19.00829
_pd_proc_ls_background_function
'17 background points'
_pd_proc_2theta_range_max
18.9273
_pd_proc_ls_prof_wR_expected
0.073296
_cell_volume
414.7(8)
_computing_structure_refinement
FULLPROF
_chemical_formula_weight
203.004
_cell_length_a
8.167(10)
_cell_length_b
5.101(6)
_cell_length_c
9.957(11)
_chemical_formula_moiety
'Rb2 S'
_pd_char_colour
white
_pd_spec_mounting
; Diamond anvil cell
;
_cell_measurement_temperature
293
_pd_proc_2theta_range_inc
0.023980
_symmetry_cell_setting
orthorhombic
_pd_proc_ls_profile_function
pseudo-Voigt
_cell_angle_gamma
90.00000
_pd_prep_pressure
700000
_cell_formula_units_Z
4
_refine_ls_goodness_of_fit_all
2.1646
_pd_spec_size_equat
0.05
_pd_meas_2theta_range_min
5.14781
_pd_proc_wavelength
0.71073
_pd_spec_mount_mode
transmission
_diffrn_measurement_device_type
'Xcalibur Oxford Difraction'
_symmetry_space_group_name_Hall
'-P 2ac 2n'
_exptl_absorpt_coefficient_mu
23.85
_chemical_name_common
'Rubidium sulfide'
_diffrn_radiation_type
'MoK\a'
_refine_ls_number_restraints
0
_pd_prep_temperature
293
_diffrn_ambient_temperature
293
_pd_proc_2theta_range_min
5.0668
_pd_meas_2theta_range_inc
0.023980
_refine_ls_number_parameters
14
_pd_spec_size_axial
0.2
_refine_ls_number_reflns
100
_cell_angle_beta
90.00000
_symmetry_space_group_name_H-M
'P n m a'
_pd_meas_scan_method
fixed
_pd_proc_ls_prof_wR_factor
0.158657
_cell_angle_alpha
90.00000
_pd_spec_shape
cylinder
_pd_meas_number_of_points
580
_chemical_formula_sum
'Rb2 S'
loop_
_symmetry_equiv_pos_as_xyz
x,y,z
x+1/2,-y+1/2,-z+1/2
-x,y+1/2,-z
-x+1/2,-y,z+1/2
-x,-y,-z
-x+1/2,y+1/2,z+1/2
x,-y+1/2,z
x+1/2,y,-z+1/2

loop_
_atom_type_symbol
_atom_type_scat_dispersion_real
_atom_type_scat_dispersion_imag
_atom_type_scat_source
rb -1.04400 2.97300 International_Tables_for_Crystallography_Vol.C(1991)_Tables_6.1.1.4_and_6.1.1.5
s 0.11000 0.12400 International_Tables_for_Crystallography_Vol.C(1991)_Tables_6.1.1.4_and_6.1.1.5

loop_
_atom_site_type_symbol
_atom_site_label
_atom_site_fract_x
_atom_site_fract_y
_atom_site_fract_z
_atom_site_u_iso_or_equiv
_atom_site_adp_type
_atom_site_occupancy
Rb Rb1 0.0390(10) 0.25000 0.1891(4) 0.00000 Uiso 1.00000
Rb Rb2 0.1652(6) 0.25000 0.5778(5) 0.00000 Uiso 1.00000
S S1 0.224(3) 0.25000 0.8892(12) 0.00000 Uiso 1.00000

loop_
_geom_bond_atom_site_label_1
_geom_bond_atom_site_label_2
_geom_bond_site_symmetry_1
_geom_bond_site_symmetry_2
_geom_bond_distance
_geom_bond_publ_flag
? ? ? ? ? ?

loop_
_geom_contact_atom_site_label_1
_geom_contact_atom_site_label_2
_geom_contact_distance
_geom_contact_site_symmetry_1
_geom_contact_site_symmetry_2
_geom_contact_publ_flag
? ? ? ? ? ?

loop_
_geom_angle_atom_site_label_1
_geom_angle_atom_site_label_2
_geom_angle_atom_site_label_3
_geom_angle_site_symmetry_1
_geom_angle_site_symmetry_2
_geom_angle_site_symmetry_3
_geom_angle
_geom_angle_publ_flag
? ? ? ? ? ? ? ?

loop_
_geom_torsion_atom_site_label_1
_geom_torsion_atom_site_label_2
_geom_torsion_atom_site_label_3
_geom_torsion_atom_site_label_4
_geom_torsion_site_symmetry_1
_geom_torsion_site_symmetry_2
_geom_torsion_site_symmetry_3
_geom_torsion_site_symmetry_4
_geom_torsion
_geom_torsion_publ_flag
? ? ? ? ? ? ? ? ? ?

loop_
_geom_hbond_atom_site_label_d
_geom_hbond_atom_site_label_h
_geom_hbond_atom_site_label_a
_geom_hbond_site_symmetry_d
_geom_hbond_site_symmetry_h
_geom_hbond_site_symmetry_a
_geom_hbond_distance_dh
_geom_hbond_distance_ha
_geom_hbond_distance_da
_geom_hbond_angle_dha
_geom_hbond_publ_flag
? ? ? ? ? ? ? ? ? ? ?



# powder data simulated using PLATON:

data_phaseII_simulated_

_publcif_pd_cifplot 'simulated 2021-03-25'

_pd_proc_2theta_range_min 0.020
_pd_proc_2theta_range_max 5.000
_pd_proc_2theta_range_inc 0.020
# Mo
_diffrn_radiation_wavelength 0.71073
# Mar 25 12:18:53 2021
# 1
# phaseII   P n m a                                 
loop_ _pd_calc_intensity_total #SCANDATA
0
0
0
0
0
0
0
0
0
0
0
0
0
0
0
0
0
0
0
0
0
0
0
0
0
0
0
0
0
0
0
0
0
0
0
0
0
0
0
0
0
0
0
0
0
0
0
0
0
0
0
0
0
0
0
0
0
0
0
0
0
0
0
0
0
0
0
0
0
0
0
0
0
0
0
0
0
0
0
0
0
0
0
0
0
0
0
0
0
0
0
0
0
0
0
0
0
0
0
0
0
0
0
0
0
0
0
0
0
0
0
0
0
0
0
0
0
0
0
0
0
0
0
0
0
0
0
0
0
0
0
0
0
0
0
0
0
0
0
0
0
0
0
0
0
0
0
0
0
0
0
0
0
0
0
0
0
0
0
0
0
0
0
0
0
0
0
0
0
0
0
0
0
0
0
0
0
0
0
0
0
0
0
0
0
0
0
0
0
0
0
0
0
0
0
0
0
0
0
0
0
0
0
0
54168
0
0
0
0
0
0
0
0
0
0
0
0
0
0
0
0
0
0
0
0
0
0
0
0
0
0
0
0
0
0
0
0
0
0
0
0
0
0
0
0
0
0
0
155000
0

