data_phaseIII

loop_
_pd_proc_2theta_corrected
_pd_proc_intensity_net



5.00418	6.2
5.02812	2.62
5.05206	11.34
5.07599	2.82
5.09993	7
5.12387	1.66747
5.14781	17.74
5.17175	7.82
5.19569	19.32
5.21963	0.67865
5.24356	11.82
5.2675	9.08
5.29144	 0.03289
5.31538	6.82
5.33932	3.84
5.36326	1.37549
5.3872	 3.56
5.41114	7.84
5.43507	 5.74
5.45901	7.5
5.48295	 0.43046
5.50689	6.42
5.53083	 7.26
5.55477	9.8
5.57871	 5.84
5.60264	2.02
5.62658	 10.24
5.65052	5.98
5.67446	 10.7
5.6984	0.41477
5.72234	 5.44
5.74628	 2.18
5.77022	 9.22
5.79415	 0.51398
5.81809	 0.87118
5.84203	10.68
5.86597	7.44
5.88991	6.66
5.91385	 0.24
5.93779	0.00279
5.96172	 5.88
5.98566	3.86
6.0096	 9.3
6.03354	 5
6.05748	 10.22
6.08142	7.88
6.10536	 2.44
6.1293	5.9
6.15323	10.16
6.17717	14.64
6.20111	11.86
6.22505	10.2
6.24899	7.4
6.27293	13.98
6.29687	1.0352
6.3208	12.52
6.34474	 1.84795
6.36868	10.7
6.39262	9.58
6.41656	13.8
6.4405	12.7
6.46444	17.06
6.48837	14.48
6.51231	17.48
6.53625	9.18
6.56019	9.4
6.58413	11.6
6.60807	8
6.63201	 0.78577
6.65595	3.46
6.67988	1.09108
6.70382	 5.02
6.72776	 8.78
6.7517	 0.43289
6.77564	2.6
6.79958	8.76
6.82352	13.76
6.84745	11.38
6.87139	7.34
6.89533	8.46
6.91927	11.14
6.94321	1.4491
6.96715	9.26
6.99109	1.44954
7.01503	2.18
7.03896	5.88
7.0629	0.22044
7.08684	 2.84
7.11078	 0.75913
7.13472	3.04
7.15866	3.82
7.1826	7.86
7.20653	 1.87801
7.23047	1.65221
7.25441	3.18
7.27835	6.26
7.30229	 0.55713
7.32623	4.3
7.35017	6.82
7.3741	2.74
7.39804	 1.01715
7.42198	7.48
7.44592	 5.32
7.46986	4.82
7.4938	4.06
7.51774	9.24
7.54168	0.15056
7.56561	21.98
7.58955	7.46
7.61349	19.1
7.63743	7.78
7.66137	19.44
7.68531	 2.78
7.70925	14.3
7.73318	 4.2
7.75712	10.94
7.78106	0.31457
7.805	10.48
7.82894	 7.88
7.85288	7.34
7.87682	 3.16
7.90076	8.36
7.92469	 6.54
7.94863	13.26
7.97257	 0.29302
7.99651	3.6
8.02045	0.7252
8.04439	0.92
8.06833	 5.04
8.09226	3.66
8.1162	 11.92
8.14014	1.14028
8.16408	 6.16
8.18802	0.3385
8.21196	 1.68239
8.2359	1.45672
8.25984	3.78
8.28377	5.6
8.30771	 0.02642
8.33165	1.21269
8.35559	 0.3882
8.37953	1.33643
8.40347	1.77528
8.42741	11.42
8.45134	9.56
8.47528	11.52
8.49922	14.18
8.52316	27.06
8.5471	22.44
8.57104	32.32
8.59498	39.94
8.61891	52.66
8.64285	58.54
8.66679	68.38
8.69073	93.82
8.71467	99.58
8.73861	120.88
8.76255	133.68
8.78649	144
8.81042	158.96
8.83436	159.14
8.8583	164.02
8.88224	161.94
8.90618	160.92
8.93012	152.96
8.95406	133.6
8.97799	123.46
9.00193	107.52
9.02587	93.88
9.04981	77.24
9.07375	67.4
9.09769	53.14
9.12163	50.68
9.14557	34.12
9.1695	40.92
9.19344	20.94
9.21738	24.38
9.24132	16.74
9.26526	18.02
9.2892	11.22
9.31314	11.8
9.33707	8.94
9.36101	6.68
9.38495	1.78658
9.40889	8.22
9.43283	6.36
9.45677	3.48
9.48071	5.96
9.50464	8.64
9.52858	1.95085
9.55252	2.16
9.57646	2.78
9.6004	0.60338
9.62434	5.58
9.64828	10.32
9.67222	6.76
9.69615	10
9.72009	10.98
9.74403	13.9
9.76797	10.98
9.79191	7.56
9.81585	14.7
9.83979	14.84
9.86372	10.58
9.88766	13.56
9.9116	5.92
9.93554	12.54
9.95948	6.98
9.98342	15.98
10.00736	9.78
10.0313	18.52
10.05523	24.54
10.07917	19.6
10.10311	24.36
10.12705	29.6
10.15099	37
10.17493	49.04
10.19887	53.6
10.2228	60.06
10.24674	64.78
10.27068	74.2
10.29462	83.18
10.31856	92.36
10.3425	100.54
10.36644	110.36
10.39038	127.06
10.41431	150.5
10.43825	171.86
10.46219	199.22
10.48613	227.4
10.51007	259.68
10.53401	286.58
10.55795	329.6
10.58188	363.84
10.60582	399.1
10.62976	438.4
10.6537	458.08
10.67764	479.42
10.70158	489.32
10.72552	486.78
10.74945	476.74
10.77339	459.08
10.79733	415.72
10.82127	376.76
10.84521	332.34
10.86915	294.64
10.89309	244.3
10.91703	211.88
10.94096	167.48
10.9649	146.22
10.98884	111.02
11.01278	98
11.03672	78.16
11.06066	67.2
11.0846	52.14
11.10853	46.24
11.13247	42.16
11.15641	26.3
11.18035	33.24
11.20429	22.8
11.22823	20.38
11.25217	12.08
11.27611	12.74
11.30004	 0.0345
11.32398	5.82
11.34792	4
11.37186	4.16
11.3958	3.42
11.41974	6.94
11.44368	4.1
11.46761	4.7
11.49155	0.36225
11.51549	5.02
11.53943	2.6
11.56337	11.46
11.58731	 0.36387
11.61125	9.7
11.63519	4.44
11.65912	10.12
11.68306	2.44
11.707	9.84
11.73094	13.96
11.75488	5.44
11.77882	6.46
11.80276	14.7
11.82669	1.05893
11.85063	10.78
11.87457	13.08
11.89851	19.94
11.92245	8.5
11.94639	20.44
11.97033	8.66
11.99426	21.06
12.0182	5.28
12.04214	21.84
12.06608	18.58
12.09002	15.34
12.11396	10.7
12.1379	15.14
12.16184	3.74
12.18577	13.86
12.20971	7.94
12.23365	8.54
12.25759	11.62
12.28153	 2.78
12.30547	 1.35357
12.32941	5.76
12.35334	 12
12.37728	 5.04
12.40122	 14.2
12.42516	 0.06944
12.4491	 11.36
12.47304	 8.58
12.49698	 5.5
12.52092	4.8
12.54485	 9.72
12.56879	 3.32
12.59273	4.98
12.61667	 12.26
12.64061	 9.3
12.66455	0.95234
12.68849	5.26
12.71242	 10.14
12.73636	2.34
12.7603	0.02876
12.78424	2.78
12.80818	5.42
12.83212	 0.54855
12.85606	0.70567
12.87999	 5.9
12.90393	 2.58
12.92787	5.02
12.95181	 2.14
12.97575	 3.14
12.99969	3.06
13.02363	 5.82
13.04757	8.52
13.0715	5.64
13.09544	 0.88782
13.11938	9.52
13.14332	5.56
13.16726	0.09913
13.1912	5.24
13.21514	4.34
13.23907	7.74
13.26301	 6.7
13.28695	10.92
13.31089	 5.16
13.33483	6.84
13.35877	 14.58
13.38271	23
13.40665	 7.96
13.43058	4.56
13.45452	 10.24
13.47846	12.4
13.5024	 22.98
13.52634	1.51026
13.55028	 5.66
13.57422	7.86
13.59815	 10.84
13.62209	 2.88
13.64603	 7.24
13.66997	16.14
13.69391	 6.9
13.71785	4.88
13.74179	4.04
13.76573	14.46
13.78966	4.76
13.8136	5.76
13.83754	12.5
13.86148	12.86
13.88542	5.16
13.90936	 2.06
13.9333	15.38
13.95723	9.28
13.98117	12.38
14.00511	 4.28
14.02905	24.16
14.05299	5.46
14.07693	19.3
14.10087	18.62
14.1248	41.78
14.14874	29
14.17268	26.04
14.19662	54.16
14.22056	41.08
14.2445	59.48
14.26844	63.24
14.29238	74.98
14.31631	70.84
14.34025	94.06
14.36419	86.2
14.38813	115.48
14.41207	117.14
14.43601	154.96
14.45995	131.74
14.48388	213.38
14.50782	199.62
14.53176	241.3
14.5557	269.72
14.57964	316.3
14.60358	360.2
14.62752	384.64
14.65146	459.26
14.67539	511.96
14.69933	565.58
14.72327	618.6
14.74721	715.3
14.77115	779.44
14.79509	855.06
14.81903	901.76
14.84296	996.7
14.8669	1048.52
14.89084	1122.7
14.91478	1144.34
14.93872	1193.1
14.96266	1237.14
14.9866	1239.34
15.01054	1293.6
15.03447	1271.1
15.05841	1346.42
15.08235	1313.44
15.10629	1408.38
15.13023	1427.28
15.15417	1541.44
15.17811	1552.74
15.20204	1667.18
15.22598	1751.42
15.24992	1874.1
15.27386	1902.7
15.2978	2020.74
15.32174	2040.08
15.34568	2040.3
15.36961	2049.9
15.39355	1985.48
15.41749	1931.98
15.44143	1740.74
15.46537	1680
15.48931	1447.5
15.51325	1347.98
15.53719	1146.2
15.56112	1034.86
15.58506	793.56
15.609	741.18
15.63294	599.7
15.65688	512.34
15.68082	384.76
15.70476	357.02
15.72869	270.4
15.75263	218.8
15.77657	178.22
15.80051	150.56
15.82445	111.88
15.84839	76.84
15.87233	70.12
15.89627	59.82
15.9202	29.48
15.94414	21.1
15.96808	19.54
15.99202	18.78
16.01596	3.32
16.0399	17.32
16.06384	 9.28
16.08777	1.79688
16.11171	 12.06
16.13565	21.4
16.15959	 26.6
16.18353	10.68
16.20747	 22.24
16.23141	 6.34
16.25534	 22.54
16.27928	17.4
16.30322	 19.32
16.32716	 3.02
16.3511	 15.94
16.37504	7.4
16.39898	1.90575
16.42292	 6.58
16.44685	0.9018
16.47079	 0.94795
16.49473	20.26
16.51867	4.68
16.54261	 0.22691
16.56655	 0.73469
16.59049	 6.14
16.61442	16.16
16.63836	 6.42
16.6623	 0.88846
16.68624	 22.1
16.71018	17.24
16.73412	 14.78
16.75806	1.36042
16.782	 19.42
16.80593	9.46
16.82987	 2.82
16.85381	 13.06
16.87775	 11.16
16.90169	5.24
16.92563	 13.6
16.94957	 15.22
16.9735	 0.95489
16.99744	13.82
17.02138	 14.08
17.04532	 17.72
17.06926	 5.56
17.0932	 3.7
17.11714	 12.06
17.14108	 15
17.16501	3.86
17.18895	 2.6
17.21289	 3.84
17.23683	 8.32
17.26077	 8.2
17.28471	1.88132
17.30865	 9.98
17.33258	 4.06
17.35652	 13.06
17.38046	3.12
17.4044	11.3
17.42834	6.54
17.45228	 14.46
17.47622	2.08
17.50015	1.566
17.52409	22.68
17.54803	 22.68
17.57197	26.24
17.59591	 11.36
17.61985	23.22
17.64379	 6.06
17.66773	3.78
17.69166	 3.2
17.7156	14.88
17.73954	8.1
17.76348	13.94
17.78742	 19.74
17.81136	5.8
17.8353	24.06
17.85923	 5.76
17.88317	5.06
17.90711	 25.98
17.93105	36.38
17.95499	 12.66
17.97893	 10.46
18.00287	 19.06
18.02681	7.58
18.05074	 3.78
18.07468	 2.6
18.09862	 12.42
18.12256	 2.36
18.1465	 14.04
18.17044	3.96
18.19438	1.64657
18.21831	 8.76



_pd_proc_ls_prof_R_factor
0.082205
_pd_meas_2theta_range_max
18.21831
_pd_proc_ls_background_function
'17 background points'
_pd_proc_2theta_range_max
18.3044
_pd_proc_ls_prof_wR_expected
0.084489
_cell_volume
166.044(5)
_computing_structure_refinement
FULLPROF
_chemical_formula_weight
203.004
_cell_length_a
5.30756(8)
_cell_length_b
5.30756(8)
_cell_length_c
6.80615(4)
_chemical_formula_moiety
'Rb2 S'
_pd_char_colour
white
_pd_spec_mounting
'diamond anvil cell'
_cell_measurement_temperature
293
_pd_proc_2theta_range_inc
0.023983
_symmetry_cell_setting
hexagonal
_pd_proc_ls_profile_function
pseudo-Voigt
_cell_angle_gamma
120.00000
_pd_prep_pressure
5100000
_cell_formula_units_Z
2
_refine_ls_goodness_of_fit_all
2.2846
_pd_spec_size_equat
0.05
_pd_meas_2theta_range_min
5.14781
_pd_proc_wavelength
0.71073
_pd_spec_mount_mode
transmission
_diffrn_measurement_device_type
'Xcalibur Oxford Difraction'
_symmetry_space_group_name_Hall
'-P 6c 2c'
_exptl_absorpt_coefficient_mu
29.79
_chemical_name_common
'Rubidium sulfide'
_diffrn_radiation_type
'MoK\a'
_refine_ls_number_restraints
0
_pd_prep_temperature
293
_diffrn_ambient_temperature
293
_pd_proc_2theta_range_min
5.2339
_pd_meas_2theta_range_inc
0.023983
_exptl_absorpt_correction_type
none
_refine_ls_number_parameters
8
_pd_spec_size_axial
0.2
_refine_ls_number_reflns
22
_cell_angle_beta
90.00000
_symmetry_space_group_name_H-M
'P 63/m m c'
_pd_meas_scan_method
fixed
_pd_proc_ls_prof_wR_factor
0.193023
_cell_angle_alpha
90.00000
_pd_spec_shape
cylinder
_pd_meas_number_of_points
547
_chemical_formula_sum
'Rb2 S'
loop_
_symmetry_equiv_pos_as_xyz
x,y,z
x-y,x,z+1/2
-y,x-y,z
-x,-y,z+1/2
-x+y,-x,z
y,-x+y,z+1/2
-y,-x,z
-x,-x+y,z+1/2
-x+y,y,z
y,x,z+1/2
x,x-y,z
x-y,-y,z+1/2
-x,-y,-z
-x+y,-x,-z+1/2
y,-x+y,-z
x,y,-z+1/2
x-y,x,-z
-y,x-y,-z+1/2
y,x,-z
x,x-y,-z+1/2
x-y,-y,-z
-y,-x,-z+1/2
-x,-x+y,-z
-x+y,y,-z+1/2

loop_
_atom_type_symbol
_atom_type_scat_dispersion_real
_atom_type_scat_dispersion_imag
_atom_type_scat_source
Rb -1.04400 2.97300 International_Tables_for_Crystallography_Vol.C(1991)_Tables_6.1.1.4_and_6.1.1.5
S 0.11000 0.12400 International_Tables_for_Crystallography_Vol.C(1991)_Tables_6.1.1.4_and_6.1.1.5

loop_
_atom_site_type_symbol
_atom_site_label
_atom_site_fract_x
_atom_site_fract_y
_atom_site_fract_z
_atom_site_u_iso_or_equiv
_atom_site_adp_type
_atom_site_occupancy
Rb Rb1 0.00000 0.00000 0.00000 0.127(11) Uiso 1.00000
Rb Rb2 0.33333 0.66667 0.75000 0.102(13) Uiso 1.00000
S S1 0.33333 0.66667 0.25000 0.193(8) Uiso 1.00000

loop_
_geom_bond_atom_site_label_1
_geom_bond_atom_site_label_2
_geom_bond_site_symmetry_1
_geom_bond_site_symmetry_2
_geom_bond_distance
_geom_bond_publ_flag
? ? ? ? ? ?

loop_
_geom_contact_atom_site_label_1
_geom_contact_atom_site_label_2
_geom_contact_distance
_geom_contact_site_symmetry_1
_geom_contact_site_symmetry_2
_geom_contact_publ_flag
? ? ? ? ? ?

loop_
_geom_angle_atom_site_label_1
_geom_angle_atom_site_label_2
_geom_angle_atom_site_label_3
_geom_angle_site_symmetry_1
_geom_angle_site_symmetry_2
_geom_angle_site_symmetry_3
_geom_angle
_geom_angle_publ_flag
? ? ? ? ? ? ? ?

loop_
_geom_torsion_atom_site_label_1
_geom_torsion_atom_site_label_2
_geom_torsion_atom_site_label_3
_geom_torsion_atom_site_label_4
_geom_torsion_site_symmetry_1
_geom_torsion_site_symmetry_2
_geom_torsion_site_symmetry_3
_geom_torsion_site_symmetry_4
_geom_torsion
_geom_torsion_publ_flag
? ? ? ? ? ? ? ? ? ?

loop_
_geom_hbond_atom_site_label_d
_geom_hbond_atom_site_label_h
_geom_hbond_atom_site_label_a
_geom_hbond_site_symmetry_d
_geom_hbond_site_symmetry_h
_geom_hbond_site_symmetry_a
_geom_hbond_distance_dh
_geom_hbond_distance_ha
_geom_hbond_distance_da
_geom_hbond_angle_dha
_geom_hbond_publ_flag
? ? ? ? ? ? ? ? ? ? ?



# powder data simulated using PLATON:

data_phaseIII_simulated_

_publcif_pd_cifplot 'simulated 2021-03-25'

